AutoDock-GPU version: v1.5.3-104-g2e658c318d60806bc6bb361f11f8535d5fb1fe1f

**********************************************************
**    AutoDock-GPU AUTODOCKTOOLS-COMPATIBLE DLG FILE    **
**********************************************************


    DOCKING PARAMETERS
    ________________________


Flexible residue file:                     PBI_URA_1.pdbqt
Grid fld file:                             3zd5_rec.maps.fld

Random seed:                               1731052787, 3157
Number of runs:                            20
Number of energy evaluations:              1259779
Number of generations:                     42000
Size of population:                        150
Rate of crossover:                         80.000000%
Tournament selection probability limit:    60.000000%
Rate of mutation:                          2.000000%
Maximal allowed delta movement:            +/- 6.000000A
Maximal allowed delta angle:               +/- 90.000000

Rate of local search:                      100.000000%
Maximal number of local search iterations: 300
Rho lower bound:                           0.010000
Spread of local search delta movement:     2.000000A
Spread of local search delta angle:        74.999999
Limit of consecutive successes/failures:   4

Handle symmetry during clustering:         YES
RMSD tolerance:                            2.000000A

Program call in command line was:          ./adgpu --flexres PBI_URA_1.pdbqt --ffile 3zd5_rec.maps.fld --resnam 3zd5_PBI_URA 


    GRID PARAMETERS
    ________________________


Receptor name:                             3zd5_rec
Number of grid points (x, y, z):           77, 61, 59
Grid center (x, y, z):                     -19.170000, -0.608000, -5.987000A
Grid size (x, y, z):                       28.500000, 22.500000, 21.750000A
Grid spacing:                              0.375000A


    LIGAND+FLEXRES PARAMETERS
    ________________________


Flexres name:                              PBI_URA_1
Number of ligand atoms:                    0
Number of flexres atoms:                   21
Number of ligand rotatable bonds:          0
Number of flexres rotatable bonds:         7
Number of atoms:                           21
Number of rotatable bonds:                 7
Number of atom types:                      6


    DUMMY DATA (only for ADT-compatibility)
    ________________________


DPF> outlev 1
DPF> ga_run 20
DPF> fld 3zd5_rec.maps.fld
DPF> flexres PBI_URA_1.pdbqt


    COUNTER STATES
    ________________________


Number of energy evaluations performed:    544085
Number of generations used:                25


    INPUT FLEXRES PDBQT FILE:
    ________________________


INPUT-FLEXRES-PDBQT: BEGIN_RES 5BU B 11
INPUT-FLEXRES-PDBQT: REMARK SMILES Cn1cc(/N=C/CCCc2ccccc2)c(=O)[nH]c1=O
INPUT-FLEXRES-PDBQT: REMARK SMILES IDX 1 1 2 2 19 3 3 4 18 5 4 6 16 7 20 8 17 10 5 11 6 12 7 13
INPUT-FLEXRES-PDBQT: REMARK SMILES IDX 8 14 9 15 10 16 11 17 15 18 12 19 14 20 13 21
INPUT-FLEXRES-PDBQT: REMARK H PARENT 18 9
INPUT-FLEXRES-PDBQT: ROOT
INPUT-FLEXRES-PDBQT: ATOM      1  C   UNL     1     -13.682  -3.095  -4.050  1.00  0.00     0.154 C 
INPUT-FLEXRES-PDBQT: ENDROOT
INPUT-FLEXRES-PDBQT: BRANCH   1   2
INPUT-FLEXRES-PDBQT: ATOM      2  N   UNL     1     -14.333  -1.896  -4.555  1.00  0.00    -0.301 N 
INPUT-FLEXRES-PDBQT: ATOM      3  C   UNL     1     -13.707  -0.666  -4.413  1.00  0.00     0.328 C 
INPUT-FLEXRES-PDBQT: ATOM      4  C   UNL     1     -15.552  -2.025  -5.191  1.00  0.00     0.124 C 
INPUT-FLEXRES-PDBQT: ATOM      5  N   UNL     1     -14.385   0.401  -4.936  1.00  0.00    -0.272 N 
INPUT-FLEXRES-PDBQT: ATOM      6  C   UNL     1     -16.240  -0.992  -5.696  1.00  0.00     0.144 C 
INPUT-FLEXRES-PDBQT: ATOM      7  C   UNL     1     -15.593   0.363  -5.576  1.00  0.00     0.279 C 
INPUT-FLEXRES-PDBQT: ATOM      8  O   UNL     1     -12.621  -0.495  -3.864  1.00  0.00    -0.248 OA
INPUT-FLEXRES-PDBQT: ATOM      9  H   UNL     1     -13.941   1.301  -4.851  1.00  0.00     0.175 HD
INPUT-FLEXRES-PDBQT: ATOM     10  O   UNL     1     -16.115   1.388  -6.009  1.00  0.00    -0.267 OA
INPUT-FLEXRES-PDBQT: BRANCH   6  11
INPUT-FLEXRES-PDBQT: ATOM     11  N   UNL     1     -17.431  -1.191  -6.357  1.00  0.00    -0.254 NA
INPUT-FLEXRES-PDBQT: BRANCH  11  12
INPUT-FLEXRES-PDBQT: ATOM     12  C   UNL     1     -18.406  -0.413  -6.016  1.00  0.00     0.084 C 
INPUT-FLEXRES-PDBQT: BRANCH  12  13
INPUT-FLEXRES-PDBQT: ATOM     13  C   UNL     1     -19.736  -0.516  -6.711  1.00  0.00     0.048 C 
INPUT-FLEXRES-PDBQT: BRANCH  13  14
INPUT-FLEXRES-PDBQT: ATOM     14  C   UNL     1     -19.970   0.741  -7.547  1.00  0.00     0.010 C 
INPUT-FLEXRES-PDBQT: BRANCH  14  15
INPUT-FLEXRES-PDBQT: ATOM     15  C   UNL     1     -21.266   0.684  -8.360  1.00  0.00     0.036 C 
INPUT-FLEXRES-PDBQT: BRANCH  15  16
INPUT-FLEXRES-PDBQT: ATOM     16  C   UNL     1     -22.512   0.683  -7.509  1.00  0.00    -0.048 A 
INPUT-FLEXRES-PDBQT: ATOM     17  C   UNL     1     -22.917   1.846  -6.840  1.00  0.00     0.004 A 
INPUT-FLEXRES-PDBQT: ATOM     18  C   UNL     1     -23.277  -0.483  -7.367  1.00  0.00     0.004 A 
INPUT-FLEXRES-PDBQT: ATOM     19  C   UNL     1     -24.063   1.843  -6.045  1.00  0.00     0.000 A 
INPUT-FLEXRES-PDBQT: ATOM     20  C   UNL     1     -24.423  -0.484  -6.571  1.00  0.00     0.000 A 
INPUT-FLEXRES-PDBQT: ATOM     21  C   UNL     1     -24.816   0.677  -5.909  1.00  0.00     0.000 A 
INPUT-FLEXRES-PDBQT: ENDBRANCH  15  16
INPUT-FLEXRES-PDBQT: ENDBRANCH  14  15
INPUT-FLEXRES-PDBQT: ENDBRANCH  13  14
INPUT-FLEXRES-PDBQT: ENDBRANCH  12  13
INPUT-FLEXRES-PDBQT: ENDBRANCH  11  12
INPUT-FLEXRES-PDBQT: ENDBRANCH   6  11
INPUT-FLEXRES-PDBQT: ENDBRANCH   1   2
INPUT-FLEXRES-PDBQT: END_RES 5BU B 11


    FINAL DOCKED STATE:
    ________________________


Run:   1 / 20
Time taken for this run:   0.039s

DOCKED: MODEL        1
DOCKED: USER    Run = 1
DOCKED: USER
DOCKED: USER    Estimated Free Energy of Binding    =  -2.91 kcal/mol  [=(1)+(2)+(3)-(4)]
DOCKED: USER
DOCKED: USER    (1) Final Intermolecular Energy     =  +0.00 kcal/mol
DOCKED: USER        vdW + Hbond + desolv Energy     =  +0.00 kcal/mol
DOCKED: USER        Electrostatic Energy            =  +0.00 kcal/mol
DOCKED: USER        Moving Ligand-Fixed Receptor    =  +0.00 kcal/mol
DOCKED: USER        Moving Ligand-Moving Receptor   =  +0.00 kcal/mol
DOCKED: USER    (2) Final Total Internal Energy     =  -2.91 kcal/mol
DOCKED: USER    (3) Torsional Free Energy           =  +0.00 kcal/mol
DOCKED: USER    (4) Unbound System's Energy         =  +0.00 kcal/mol
DOCKED: USER
DOCKED: USER
DOCKED: BEGIN_RES 5BU B 11
DOCKED: REMARK SMILES Cn1cc(/N=C/CCCc2ccccc2)c(=O)[nH]c1=O
DOCKED: REMARK SMILES IDX 1 1 2 2 19 3 3 4 18 5 4 6 16 7 20 8 17 10 5 11 6 12 7 13
DOCKED: REMARK SMILES IDX 8 14 9 15 10 16 11 17 15 18 12 19 14 20 13 21
DOCKED: REMARK H PARENT 18 9
DOCKED: USER                              x       y       z     vdW  Elec       q    Type
DOCKED: USER                           _______ _______ _______ _____ _____    ______ ____
DOCKED: ROOT
DOCKED: ATOM      1  C   UNL     1     -13.682  -3.095  -4.050 +0.00 +0.00    +0.154 C  
DOCKED: ENDROOT
DOCKED: BRANCH   1   2
DOCKED: ATOM      2  N   UNL     1     -14.333  -1.896  -4.555 +0.00 +0.00    -0.301 N  
DOCKED: ATOM      3  C   UNL     1     -13.594  -0.967  -5.273 +1.99 -0.72    +0.328 C  
DOCKED: ATOM      4  C   UNL     1     -15.685  -1.733  -4.326 +2.66 -0.32    +0.124 C  
DOCKED: ATOM      5  N   UNL     1     -14.295   0.118  -5.724 -0.44 +0.66    -0.272 N  
DOCKED: ATOM      6  C   UNL     1     -16.387  -0.672  -4.745 -0.56 -0.39    +0.144 C  
DOCKED: ATOM      7  C   UNL     1     -15.629   0.359  -5.540 -0.39 -0.69    +0.279 C  
DOCKED: ATOM      8  O   UNL     1     -12.393  -1.065  -5.512 -0.34 +0.56    -0.248 OA 
DOCKED: ATOM      9  H   UNL     1     -13.777   0.798  -6.256 -0.28 -0.46    +0.175 HD 
DOCKED: ATOM     10  O   UNL     1     -16.159   1.371  -5.992 -0.94 +0.66    -0.267 OA 
DOCKED: BRANCH   6  11
DOCKED: ATOM     11  N   UNL     1     -17.743  -0.588  -4.522 -0.29 +0.76    -0.254 NA 
DOCKED: BRANCH  11  12
DOCKED: ATOM     12  C   UNL     1     -18.486  -1.357  -5.249 -0.41 -0.26    +0.084 C  
DOCKED: BRANCH  12  13
DOCKED: ATOM     13  C   UNL     1     -19.886  -0.939  -5.608 -0.40 -0.15    +0.048 C  
DOCKED: BRANCH  13  14
DOCKED: ATOM     14  C   UNL     1     -19.948   0.584  -5.716 -0.27 -0.03    +0.010 C  
DOCKED: BRANCH  14  15
DOCKED: ATOM     15  C   UNL     1     -20.312   1.067  -7.123 -0.25 -0.11    +0.036 C  
DOCKED: BRANCH  15  16
DOCKED: ATOM     16  C   UNL     1     -19.287   1.995  -7.725 -0.20 +0.15    -0.048 A  
DOCKED: ATOM     17  C   UNL     1     -18.461   2.773  -6.902 -0.31 -0.01    +0.004 A  
DOCKED: ATOM     18  C   UNL     1     -19.152   2.102  -9.117 -0.23 -0.01    +0.004 A  
DOCKED: ATOM     19  C   UNL     1     -17.520   3.639  -7.459 -0.39 -0.00    +0.000 A  
DOCKED: ATOM     20  C   UNL     1     -18.210   2.969  -9.671 -0.25 -0.00    +0.000 A  
DOCKED: ATOM     21  C   UNL     1     -17.395   3.738  -8.844 -0.32 -0.00    +0.000 A  
DOCKED: ENDBRANCH  15  16
DOCKED: ENDBRANCH  14  15
DOCKED: ENDBRANCH  13  14
DOCKED: ENDBRANCH  12  13
DOCKED: ENDBRANCH  11  12
DOCKED: ENDBRANCH   6  11
DOCKED: ENDBRANCH   1   2
DOCKED: END_RES 5BU B 11
DOCKED: TER
DOCKED: ENDMDL
________________________________________________________________________________


    FINAL DOCKED STATE:
    ________________________


Run:   2 / 20
Time taken for this run:   0.039s

DOCKED: MODEL        2
DOCKED: USER    Run = 2
DOCKED: USER
DOCKED: USER    Estimated Free Energy of Binding    =  -2.91 kcal/mol  [=(1)+(2)+(3)-(4)]
DOCKED: USER
DOCKED: USER    (1) Final Intermolecular Energy     =  +0.00 kcal/mol
DOCKED: USER        vdW + Hbond + desolv Energy     =  +0.00 kcal/mol
DOCKED: USER        Electrostatic Energy            =  +0.00 kcal/mol
DOCKED: USER        Moving Ligand-Fixed Receptor    =  +0.00 kcal/mol
DOCKED: USER        Moving Ligand-Moving Receptor   =  +0.00 kcal/mol
DOCKED: USER    (2) Final Total Internal Energy     =  -2.91 kcal/mol
DOCKED: USER    (3) Torsional Free Energy           =  +0.00 kcal/mol
DOCKED: USER    (4) Unbound System's Energy         =  +0.00 kcal/mol
DOCKED: USER
DOCKED: USER
DOCKED: BEGIN_RES 5BU B 11
DOCKED: REMARK SMILES Cn1cc(/N=C/CCCc2ccccc2)c(=O)[nH]c1=O
DOCKED: REMARK SMILES IDX 1 1 2 2 19 3 3 4 18 5 4 6 16 7 20 8 17 10 5 11 6 12 7 13
DOCKED: REMARK SMILES IDX 8 14 9 15 10 16 11 17 15 18 12 19 14 20 13 21
DOCKED: REMARK H PARENT 18 9
DOCKED: USER                              x       y       z     vdW  Elec       q    Type
DOCKED: USER                           _______ _______ _______ _____ _____    ______ ____
DOCKED: ROOT
DOCKED: ATOM      1  C   UNL     1     -13.682  -3.095  -4.050 +0.00 +0.00    +0.154 C  
DOCKED: ENDROOT
DOCKED: BRANCH   1   2
DOCKED: ATOM      2  N   UNL     1     -14.333  -1.896  -4.555 +0.00 +0.00    -0.301 N  
DOCKED: ATOM      3  C   UNL     1     -13.594  -0.967  -5.273 +1.99 -0.72    +0.328 C  
DOCKED: ATOM      4  C   UNL     1     -15.685  -1.733  -4.326 +2.66 -0.32    +0.124 C  
DOCKED: ATOM      5  N   UNL     1     -14.295   0.118  -5.724 -0.44 +0.66    -0.272 N  
DOCKED: ATOM      6  C   UNL     1     -16.387  -0.672  -4.745 -0.56 -0.39    +0.144 C  
DOCKED: ATOM      7  C   UNL     1     -15.629   0.359  -5.540 -0.39 -0.69    +0.279 C  
DOCKED: ATOM      8  O   UNL     1     -12.393  -1.065  -5.512 -0.34 +0.56    -0.248 OA 
DOCKED: ATOM      9  H   UNL     1     -13.777   0.798  -6.256 -0.28 -0.46    +0.175 HD 
DOCKED: ATOM     10  O   UNL     1     -16.159   1.371  -5.992 -0.94 +0.66    -0.267 OA 
DOCKED: BRANCH   6  11
DOCKED: ATOM     11  N   UNL     1     -17.743  -0.588  -4.522 -0.29 +0.76    -0.254 NA 
DOCKED: BRANCH  11  12
DOCKED: ATOM     12  C   UNL     1     -18.487  -1.352  -5.254 -0.40 -0.26    +0.084 C  
DOCKED: BRANCH  12  13
DOCKED: ATOM     13  C   UNL     1     -19.890  -0.935  -5.602 -0.40 -0.15    +0.048 C  
DOCKED: BRANCH  13  14
DOCKED: ATOM     14  C   UNL     1     -19.966   0.589  -5.665 -0.27 -0.03    +0.010 C  
DOCKED: BRANCH  14  15
DOCKED: ATOM     15  C   UNL     1     -20.363   1.110  -7.049 -0.24 -0.11    +0.036 C  
DOCKED: BRANCH  15  16
DOCKED: ATOM     16  C   UNL     1     -19.330   2.017  -7.671 -0.20 +0.15    -0.048 A  
DOCKED: ATOM     17  C   UNL     1     -18.492   2.798  -6.864 -0.31 -0.01    +0.004 A  
DOCKED: ATOM     18  C   UNL     1     -19.200   2.100  -9.064 -0.23 -0.01    +0.004 A  
DOCKED: ATOM     19  C   UNL     1     -17.544   3.645  -7.438 -0.38 -0.00    +0.000 A  
DOCKED: ATOM     20  C   UNL     1     -18.252   2.947  -9.637 -0.25 -0.00    +0.000 A  
DOCKED: ATOM     21  C   UNL     1     -17.424   3.721  -8.826 -0.32 -0.00    +0.000 A  
DOCKED: ENDBRANCH  15  16
DOCKED: ENDBRANCH  14  15
DOCKED: ENDBRANCH  13  14
DOCKED: ENDBRANCH  12  13
DOCKED: ENDBRANCH  11  12
DOCKED: ENDBRANCH   6  11
DOCKED: ENDBRANCH   1   2
DOCKED: END_RES 5BU B 11
DOCKED: TER
DOCKED: ENDMDL
________________________________________________________________________________


    FINAL DOCKED STATE:
    ________________________


Run:   3 / 20
Time taken for this run:   0.039s

DOCKED: MODEL        3
DOCKED: USER    Run = 3
DOCKED: USER
DOCKED: USER    Estimated Free Energy of Binding    =  -2.94 kcal/mol  [=(1)+(2)+(3)-(4)]
DOCKED: USER
DOCKED: USER    (1) Final Intermolecular Energy     =  +0.00 kcal/mol
DOCKED: USER        vdW + Hbond + desolv Energy     =  +0.00 kcal/mol
DOCKED: USER        Electrostatic Energy            =  +0.00 kcal/mol
DOCKED: USER        Moving Ligand-Fixed Receptor    =  +0.00 kcal/mol
DOCKED: USER        Moving Ligand-Moving Receptor   =  +0.00 kcal/mol
DOCKED: USER    (2) Final Total Internal Energy     =  -2.94 kcal/mol
DOCKED: USER    (3) Torsional Free Energy           =  +0.00 kcal/mol
DOCKED: USER    (4) Unbound System's Energy         =  +0.00 kcal/mol
DOCKED: USER
DOCKED: USER
DOCKED: BEGIN_RES 5BU B 11
DOCKED: REMARK SMILES Cn1cc(/N=C/CCCc2ccccc2)c(=O)[nH]c1=O
DOCKED: REMARK SMILES IDX 1 1 2 2 19 3 3 4 18 5 4 6 16 7 20 8 17 10 5 11 6 12 7 13
DOCKED: REMARK SMILES IDX 8 14 9 15 10 16 11 17 15 18 12 19 14 20 13 21
DOCKED: REMARK H PARENT 18 9
DOCKED: USER                              x       y       z     vdW  Elec       q    Type
DOCKED: USER                           _______ _______ _______ _____ _____    ______ ____
DOCKED: ROOT
DOCKED: ATOM      1  C   UNL     1     -13.682  -3.095  -4.050 +0.00 +0.00    +0.154 C  
DOCKED: ENDROOT
DOCKED: BRANCH   1   2
DOCKED: ATOM      2  N   UNL     1     -14.333  -1.896  -4.555 +0.00 +0.00    -0.301 N  
DOCKED: ATOM      3  C   UNL     1     -13.594  -0.967  -5.272 +1.99 -0.72    +0.328 C  
DOCKED: ATOM      4  C   UNL     1     -15.685  -1.733  -4.326 +2.66 -0.32    +0.124 C  
DOCKED: ATOM      5  N   UNL     1     -14.295   0.118  -5.724 -0.44 +0.66    -0.272 N  
DOCKED: ATOM      6  C   UNL     1     -16.387  -0.672  -4.746 -0.56 -0.39    +0.144 C  
DOCKED: ATOM      7  C   UNL     1     -15.629   0.359  -5.540 -0.39 -0.69    +0.279 C  
DOCKED: ATOM      8  O   UNL     1     -12.393  -1.065  -5.512 -0.34 +0.56    -0.248 OA 
DOCKED: ATOM      9  H   UNL     1     -13.777   0.799  -6.256 -0.28 -0.46    +0.175 HD 
DOCKED: ATOM     10  O   UNL     1     -16.159   1.371  -5.992 -0.94 +0.66    -0.267 OA 
DOCKED: BRANCH   6  11
DOCKED: ATOM     11  N   UNL     1     -17.743  -0.588  -4.523 -0.29 +0.76    -0.254 NA 
DOCKED: BRANCH  11  12
DOCKED: ATOM     12  C   UNL     1     -18.486  -1.357  -5.250 -0.40 -0.26    +0.084 C  
DOCKED: BRANCH  12  13
DOCKED: ATOM     13  C   UNL     1     -19.914  -0.981  -5.537 -0.40 -0.15    +0.048 C  
DOCKED: BRANCH  13  14
DOCKED: ATOM     14  C   UNL     1     -19.945   0.327  -6.326 -0.30 -0.03    +0.010 C  
DOCKED: BRANCH  14  15
DOCKED: ATOM     15  C   UNL     1     -21.168   0.445  -7.238 -0.29 -0.12    +0.036 C  
DOCKED: BRANCH  15  16
DOCKED: ATOM     16  C   UNL     1     -20.852   1.009  -8.601 -0.26 +0.16    -0.048 A  
DOCKED: ATOM     17  C   UNL     1     -19.727   1.823  -8.790 -0.20 -0.01    +0.004 A  
DOCKED: ATOM     18  C   UNL     1     -21.684   0.736  -9.696 -0.42 -0.02    +0.004 A  
DOCKED: ATOM     19  C   UNL     1     -19.440   2.353 -10.048 -0.30 -0.00    +0.000 A  
DOCKED: ATOM     20  C   UNL     1     -21.395   1.267 -10.953 -0.37 -0.00    +0.000 A  
DOCKED: ATOM     21  C   UNL     1     -20.275   2.077 -11.130 -0.41 -0.00    +0.000 A  
DOCKED: ENDBRANCH  15  16
DOCKED: ENDBRANCH  14  15
DOCKED: ENDBRANCH  13  14
DOCKED: ENDBRANCH  12  13
DOCKED: ENDBRANCH  11  12
DOCKED: ENDBRANCH   6  11
DOCKED: ENDBRANCH   1   2
DOCKED: END_RES 5BU B 11
DOCKED: TER
DOCKED: ENDMDL
________________________________________________________________________________


    FINAL DOCKED STATE:
    ________________________


Run:   4 / 20
Time taken for this run:   0.039s

DOCKED: MODEL        4
DOCKED: USER    Run = 4
DOCKED: USER
DOCKED: USER    Estimated Free Energy of Binding    =  -2.94 kcal/mol  [=(1)+(2)+(3)-(4)]
DOCKED: USER
DOCKED: USER    (1) Final Intermolecular Energy     =  +0.00 kcal/mol
DOCKED: USER        vdW + Hbond + desolv Energy     =  +0.00 kcal/mol
DOCKED: USER        Electrostatic Energy            =  +0.00 kcal/mol
DOCKED: USER        Moving Ligand-Fixed Receptor    =  +0.00 kcal/mol
DOCKED: USER        Moving Ligand-Moving Receptor   =  +0.00 kcal/mol
DOCKED: USER    (2) Final Total Internal Energy     =  -2.94 kcal/mol
DOCKED: USER    (3) Torsional Free Energy           =  +0.00 kcal/mol
DOCKED: USER    (4) Unbound System's Energy         =  +0.00 kcal/mol
DOCKED: USER
DOCKED: USER
DOCKED: BEGIN_RES 5BU B 11
DOCKED: REMARK SMILES Cn1cc(/N=C/CCCc2ccccc2)c(=O)[nH]c1=O
DOCKED: REMARK SMILES IDX 1 1 2 2 19 3 3 4 18 5 4 6 16 7 20 8 17 10 5 11 6 12 7 13
DOCKED: REMARK SMILES IDX 8 14 9 15 10 16 11 17 15 18 12 19 14 20 13 21
DOCKED: REMARK H PARENT 18 9
DOCKED: USER                              x       y       z     vdW  Elec       q    Type
DOCKED: USER                           _______ _______ _______ _____ _____    ______ ____
DOCKED: ROOT
DOCKED: ATOM      1  C   UNL     1     -13.682  -3.095  -4.050 +0.00 +0.00    +0.154 C  
DOCKED: ENDROOT
DOCKED: BRANCH   1   2
DOCKED: ATOM      2  N   UNL     1     -14.333  -1.896  -4.555 +0.00 +0.00    -0.301 N  
DOCKED: ATOM      3  C   UNL     1     -13.594  -0.967  -5.273 +1.99 -0.72    +0.328 C  
DOCKED: ATOM      4  C   UNL     1     -15.685  -1.733  -4.326 +2.66 -0.32    +0.124 C  
DOCKED: ATOM      5  N   UNL     1     -14.295   0.118  -5.724 -0.44 +0.66    -0.272 N  
DOCKED: ATOM      6  C   UNL     1     -16.387  -0.672  -4.745 -0.56 -0.39    +0.144 C  
DOCKED: ATOM      7  C   UNL     1     -15.629   0.359  -5.540 -0.39 -0.69    +0.279 C  
DOCKED: ATOM      8  O   UNL     1     -12.393  -1.065  -5.512 -0.34 +0.56    -0.248 OA 
DOCKED: ATOM      9  H   UNL     1     -13.777   0.798  -6.256 -0.28 -0.46    +0.175 HD 
DOCKED: ATOM     10  O   UNL     1     -16.159   1.371  -5.992 -0.94 +0.66    -0.267 OA 
DOCKED: BRANCH   6  11
DOCKED: ATOM     11  N   UNL     1     -17.743  -0.588  -4.523 -0.29 +0.76    -0.254 NA 
DOCKED: BRANCH  11  12
DOCKED: ATOM     12  C   UNL     1     -18.486  -1.358  -5.248 -0.41 -0.26    +0.084 C  
DOCKED: BRANCH  12  13
DOCKED: ATOM     13  C   UNL     1     -19.905  -0.968  -5.559 -0.40 -0.15    +0.048 C  
DOCKED: BRANCH  13  14
DOCKED: ATOM     14  C   UNL     1     -19.911   0.343  -6.343 -0.30 -0.03    +0.010 C  
DOCKED: BRANCH  14  15
DOCKED: ATOM     15  C   UNL     1     -21.157   0.511  -7.216 -0.29 -0.12    +0.036 C  
DOCKED: BRANCH  15  16
DOCKED: ATOM     16  C   UNL     1     -20.864   1.072  -8.585 -0.26 +0.16    -0.048 A  
DOCKED: ATOM     17  C   UNL     1     -21.694   0.767  -9.672 -0.42 -0.02    +0.004 A  
DOCKED: ATOM     18  C   UNL     1     -19.751   1.899  -8.793 -0.22 -0.01    +0.004 A  
DOCKED: ATOM     19  C   UNL     1     -21.417   1.278 -10.940 -0.37 -0.00    +0.000 A  
DOCKED: ATOM     20  C   UNL     1     -19.475   2.409 -10.062 -0.30 -0.00    +0.000 A  
DOCKED: ATOM     21  C   UNL     1     -20.306   2.098 -11.136 -0.41 -0.00    +0.000 A  
DOCKED: ENDBRANCH  15  16
DOCKED: ENDBRANCH  14  15
DOCKED: ENDBRANCH  13  14
DOCKED: ENDBRANCH  12  13
DOCKED: ENDBRANCH  11  12
DOCKED: ENDBRANCH   6  11
DOCKED: ENDBRANCH   1   2
DOCKED: END_RES 5BU B 11
DOCKED: TER
DOCKED: ENDMDL
________________________________________________________________________________


    FINAL DOCKED STATE:
    ________________________


Run:   5 / 20
Time taken for this run:   0.039s

DOCKED: MODEL        5
DOCKED: USER    Run = 5
DOCKED: USER
DOCKED: USER    Estimated Free Energy of Binding    =  -2.92 kcal/mol  [=(1)+(2)+(3)-(4)]
DOCKED: USER
DOCKED: USER    (1) Final Intermolecular Energy     =  +0.00 kcal/mol
DOCKED: USER        vdW + Hbond + desolv Energy     =  +0.00 kcal/mol
DOCKED: USER        Electrostatic Energy            =  +0.00 kcal/mol
DOCKED: USER        Moving Ligand-Fixed Receptor    =  +0.00 kcal/mol
DOCKED: USER        Moving Ligand-Moving Receptor   =  +0.00 kcal/mol
DOCKED: USER    (2) Final Total Internal Energy     =  -2.92 kcal/mol
DOCKED: USER    (3) Torsional Free Energy           =  +0.00 kcal/mol
DOCKED: USER    (4) Unbound System's Energy         =  +0.00 kcal/mol
DOCKED: USER
DOCKED: USER
DOCKED: BEGIN_RES 5BU B 11
DOCKED: REMARK SMILES Cn1cc(/N=C/CCCc2ccccc2)c(=O)[nH]c1=O
DOCKED: REMARK SMILES IDX 1 1 2 2 19 3 3 4 18 5 4 6 16 7 20 8 17 10 5 11 6 12 7 13
DOCKED: REMARK SMILES IDX 8 14 9 15 10 16 11 17 15 18 12 19 14 20 13 21
DOCKED: REMARK H PARENT 18 9
DOCKED: USER                              x       y       z     vdW  Elec       q    Type
DOCKED: USER                           _______ _______ _______ _____ _____    ______ ____
DOCKED: ROOT
DOCKED: ATOM      1  C   UNL     1     -13.682  -3.095  -4.050 +0.00 +0.00    +0.154 C  
DOCKED: ENDROOT
DOCKED: BRANCH   1   2
DOCKED: ATOM      2  N   UNL     1     -14.333  -1.896  -4.555 +0.00 +0.00    -0.301 N  
DOCKED: ATOM      3  C   UNL     1     -13.594  -0.967  -5.272 +1.99 -0.72    +0.328 C  
DOCKED: ATOM      4  C   UNL     1     -15.685  -1.733  -4.326 +2.66 -0.32    +0.124 C  
DOCKED: ATOM      5  N   UNL     1     -14.295   0.118  -5.724 -0.44 +0.66    -0.272 N  
DOCKED: ATOM      6  C   UNL     1     -16.387  -0.672  -4.746 -0.56 -0.39    +0.144 C  
DOCKED: ATOM      7  C   UNL     1     -15.629   0.359  -5.540 -0.39 -0.69    +0.279 C  
DOCKED: ATOM      8  O   UNL     1     -12.392  -1.065  -5.511 -0.34 +0.56    -0.248 OA 
DOCKED: ATOM      9  H   UNL     1     -13.777   0.799  -6.256 -0.28 -0.46    +0.175 HD 
DOCKED: ATOM     10  O   UNL     1     -16.159   1.371  -5.992 -0.94 +0.66    -0.267 OA 
DOCKED: BRANCH   6  11
DOCKED: ATOM     11  N   UNL     1     -17.743  -0.588  -4.523 -0.29 +0.76    -0.254 NA 
DOCKED: BRANCH  11  12
DOCKED: ATOM     12  C   UNL     1     -18.487  -1.353  -5.254 -0.40 -0.26    +0.084 C  
DOCKED: BRANCH  12  13
DOCKED: ATOM     13  C   UNL     1     -19.916  -0.977  -5.535 -0.40 -0.15    +0.048 C  
DOCKED: BRANCH  13  14
DOCKED: ATOM     14  C   UNL     1     -19.949   0.316  -6.347 -0.30 -0.03    +0.010 C  
DOCKED: BRANCH  14  15
DOCKED: ATOM     15  C   UNL     1     -21.050   0.325  -7.410 -0.31 -0.12    +0.036 C  
DOCKED: BRANCH  15  16
DOCKED: ATOM     16  C   UNL     1     -20.679   1.090  -8.657 -0.24 +0.16    -0.048 A  
DOCKED: ATOM     17  C   UNL     1     -19.618   2.006  -8.640 -0.23 -0.01    +0.004 A  
DOCKED: ATOM     18  C   UNL     1     -21.395   0.903  -9.848 -0.42 -0.01    +0.004 A  
DOCKED: ATOM     19  C   UNL     1     -19.281   2.721  -9.789 -0.26 -0.00    +0.000 A  
DOCKED: ATOM     20  C   UNL     1     -21.056   1.619 -10.996 -0.43 -0.00    +0.000 A  
DOCKED: ATOM     21  C   UNL     1     -20.001   2.528 -10.968 -0.34 -0.00    +0.000 A  
DOCKED: ENDBRANCH  15  16
DOCKED: ENDBRANCH  14  15
DOCKED: ENDBRANCH  13  14
DOCKED: ENDBRANCH  12  13
DOCKED: ENDBRANCH  11  12
DOCKED: ENDBRANCH   6  11
DOCKED: ENDBRANCH   1   2
DOCKED: END_RES 5BU B 11
DOCKED: TER
DOCKED: ENDMDL
________________________________________________________________________________


    FINAL DOCKED STATE:
    ________________________


Run:   6 / 20
Time taken for this run:   0.039s

DOCKED: MODEL        6
DOCKED: USER    Run = 6
DOCKED: USER
DOCKED: USER    Estimated Free Energy of Binding    =  -2.92 kcal/mol  [=(1)+(2)+(3)-(4)]
DOCKED: USER
DOCKED: USER    (1) Final Intermolecular Energy     =  +0.00 kcal/mol
DOCKED: USER        vdW + Hbond + desolv Energy     =  +0.00 kcal/mol
DOCKED: USER        Electrostatic Energy            =  +0.00 kcal/mol
DOCKED: USER        Moving Ligand-Fixed Receptor    =  +0.00 kcal/mol
DOCKED: USER        Moving Ligand-Moving Receptor   =  +0.00 kcal/mol
DOCKED: USER    (2) Final Total Internal Energy     =  -2.92 kcal/mol
DOCKED: USER    (3) Torsional Free Energy           =  +0.00 kcal/mol
DOCKED: USER    (4) Unbound System's Energy         =  +0.00 kcal/mol
DOCKED: USER
DOCKED: USER
DOCKED: BEGIN_RES 5BU B 11
DOCKED: REMARK SMILES Cn1cc(/N=C/CCCc2ccccc2)c(=O)[nH]c1=O
DOCKED: REMARK SMILES IDX 1 1 2 2 19 3 3 4 18 5 4 6 16 7 20 8 17 10 5 11 6 12 7 13
DOCKED: REMARK SMILES IDX 8 14 9 15 10 16 11 17 15 18 12 19 14 20 13 21
DOCKED: REMARK H PARENT 18 9
DOCKED: USER                              x       y       z     vdW  Elec       q    Type
DOCKED: USER                           _______ _______ _______ _____ _____    ______ ____
DOCKED: ROOT
DOCKED: ATOM      1  C   UNL     1     -13.682  -3.095  -4.050 +0.00 +0.00    +0.154 C  
DOCKED: ENDROOT
DOCKED: BRANCH   1   2
DOCKED: ATOM      2  N   UNL     1     -14.333  -1.896  -4.555 +0.00 +0.00    -0.301 N  
DOCKED: ATOM      3  C   UNL     1     -13.594  -0.966  -5.272 +1.99 -0.72    +0.328 C  
DOCKED: ATOM      4  C   UNL     1     -15.685  -1.733  -4.327 +2.66 -0.32    +0.124 C  
DOCKED: ATOM      5  N   UNL     1     -14.295   0.118  -5.724 -0.44 +0.66    -0.272 N  
DOCKED: ATOM      6  C   UNL     1     -16.387  -0.672  -4.746 -0.56 -0.39    +0.144 C  
DOCKED: ATOM      7  C   UNL     1     -15.629   0.359  -5.540 -0.39 -0.69    +0.279 C  
DOCKED: ATOM      8  O   UNL     1     -12.392  -1.065  -5.511 -0.34 +0.56    -0.248 OA 
DOCKED: ATOM      9  H   UNL     1     -13.777   0.799  -6.255 -0.28 -0.46    +0.175 HD 
DOCKED: ATOM     10  O   UNL     1     -16.159   1.371  -5.992 -0.94 +0.66    -0.267 OA 
DOCKED: BRANCH   6  11
DOCKED: ATOM     11  N   UNL     1     -17.743  -0.588  -4.523 -0.29 +0.76    -0.254 NA 
DOCKED: BRANCH  11  12
DOCKED: ATOM     12  C   UNL     1     -18.486  -1.357  -5.250 -0.40 -0.26    +0.084 C  
DOCKED: BRANCH  12  13
DOCKED: ATOM     13  C   UNL     1     -19.884  -0.937  -5.615 -0.40 -0.15    +0.048 C  
DOCKED: BRANCH  13  14
DOCKED: ATOM     14  C   UNL     1     -19.943   0.586  -5.725 -0.27 -0.03    +0.010 C  
DOCKED: BRANCH  14  15
DOCKED: ATOM     15  C   UNL     1     -20.310   1.068  -7.131 -0.25 -0.11    +0.036 C  
DOCKED: BRANCH  15  16
DOCKED: ATOM     16  C   UNL     1     -19.291   2.004  -7.733 -0.20 +0.15    -0.048 A  
DOCKED: ATOM     17  C   UNL     1     -18.467   2.783  -6.909 -0.31 -0.01    +0.004 A  
DOCKED: ATOM     18  C   UNL     1     -19.161   2.116  -9.124 -0.23 -0.01    +0.004 A  
DOCKED: ATOM     19  C   UNL     1     -17.532   3.656  -7.465 -0.38 -0.00    +0.000 A  
DOCKED: ATOM     20  C   UNL     1     -18.225   2.991  -9.678 -0.25 -0.00    +0.000 A  
DOCKED: ATOM     21  C   UNL     1     -17.412   3.761  -8.850 -0.32 -0.00    +0.000 A  
DOCKED: ENDBRANCH  15  16
DOCKED: ENDBRANCH  14  15
DOCKED: ENDBRANCH  13  14
DOCKED: ENDBRANCH  12  13
DOCKED: ENDBRANCH  11  12
DOCKED: ENDBRANCH   6  11
DOCKED: ENDBRANCH   1   2
DOCKED: END_RES 5BU B 11
DOCKED: TER
DOCKED: ENDMDL
________________________________________________________________________________


    FINAL DOCKED STATE:
    ________________________


Run:   7 / 20
Time taken for this run:   0.039s

DOCKED: MODEL        7
DOCKED: USER    Run = 7
DOCKED: USER
DOCKED: USER    Estimated Free Energy of Binding    =  -2.93 kcal/mol  [=(1)+(2)+(3)-(4)]
DOCKED: USER
DOCKED: USER    (1) Final Intermolecular Energy     =  +0.00 kcal/mol
DOCKED: USER        vdW + Hbond + desolv Energy     =  +0.00 kcal/mol
DOCKED: USER        Electrostatic Energy            =  +0.00 kcal/mol
DOCKED: USER        Moving Ligand-Fixed Receptor    =  +0.00 kcal/mol
DOCKED: USER        Moving Ligand-Moving Receptor   =  +0.00 kcal/mol
DOCKED: USER    (2) Final Total Internal Energy     =  -2.93 kcal/mol
DOCKED: USER    (3) Torsional Free Energy           =  +0.00 kcal/mol
DOCKED: USER    (4) Unbound System's Energy         =  +0.00 kcal/mol
DOCKED: USER
DOCKED: USER
DOCKED: BEGIN_RES 5BU B 11
DOCKED: REMARK SMILES Cn1cc(/N=C/CCCc2ccccc2)c(=O)[nH]c1=O
DOCKED: REMARK SMILES IDX 1 1 2 2 19 3 3 4 18 5 4 6 16 7 20 8 17 10 5 11 6 12 7 13
DOCKED: REMARK SMILES IDX 8 14 9 15 10 16 11 17 15 18 12 19 14 20 13 21
DOCKED: REMARK H PARENT 18 9
DOCKED: USER                              x       y       z     vdW  Elec       q    Type
DOCKED: USER                           _______ _______ _______ _____ _____    ______ ____
DOCKED: ROOT
DOCKED: ATOM      1  C   UNL     1     -13.682  -3.095  -4.050 +0.00 +0.00    +0.154 C  
DOCKED: ENDROOT
DOCKED: BRANCH   1   2
DOCKED: ATOM      2  N   UNL     1     -14.333  -1.896  -4.555 +0.00 +0.00    -0.301 N  
DOCKED: ATOM      3  C   UNL     1     -13.594  -0.967  -5.273 +1.99 -0.72    +0.328 C  
DOCKED: ATOM      4  C   UNL     1     -15.685  -1.733  -4.326 +2.66 -0.32    +0.124 C  
DOCKED: ATOM      5  N   UNL     1     -14.295   0.118  -5.724 -0.44 +0.66    -0.272 N  
DOCKED: ATOM      6  C   UNL     1     -16.387  -0.672  -4.745 -0.56 -0.39    +0.144 C  
DOCKED: ATOM      7  C   UNL     1     -15.629   0.359  -5.540 -0.39 -0.69    +0.279 C  
DOCKED: ATOM      8  O   UNL     1     -12.393  -1.065  -5.512 -0.34 +0.56    -0.248 OA 
DOCKED: ATOM      9  H   UNL     1     -13.777   0.798  -6.256 -0.28 -0.45    +0.175 HD 
DOCKED: ATOM     10  O   UNL     1     -16.159   1.371  -5.992 -0.94 +0.66    -0.267 OA 
DOCKED: BRANCH   6  11
DOCKED: ATOM     11  N   UNL     1     -17.743  -0.588  -4.522 -0.29 +0.76    -0.254 NA 
DOCKED: BRANCH  11  12
DOCKED: ATOM     12  C   UNL     1     -18.487  -1.350  -5.255 -0.40 -0.26    +0.084 C  
DOCKED: BRANCH  12  13
DOCKED: ATOM     13  C   UNL     1     -19.923  -0.985  -5.514 -0.40 -0.15    +0.048 C  
DOCKED: BRANCH  13  14
DOCKED: ATOM     14  C   UNL     1     -19.979   0.328  -6.294 -0.30 -0.03    +0.010 C  
DOCKED: BRANCH  14  15
DOCKED: ATOM     15  C   UNL     1     -21.193   0.418  -7.223 -0.29 -0.12    +0.036 C  
DOCKED: BRANCH  15  16
DOCKED: ATOM     16  C   UNL     1     -20.873   0.995  -8.579 -0.26 +0.16    -0.048 A  
DOCKED: ATOM     17  C   UNL     1     -19.754   1.821  -8.755 -0.20 -0.01    +0.004 A  
DOCKED: ATOM     18  C   UNL     1     -21.695   0.723  -9.682 -0.43 -0.02    +0.004 A  
DOCKED: ATOM     19  C   UNL     1     -19.463   2.363 -10.006 -0.30 -0.00    +0.000 A  
DOCKED: ATOM     20  C   UNL     1     -21.402   1.266 -10.933 -0.37 -0.00    +0.000 A  
DOCKED: ATOM     21  C   UNL     1     -20.289   2.087 -11.096 -0.40 -0.00    +0.000 A  
DOCKED: ENDBRANCH  15  16
DOCKED: ENDBRANCH  14  15
DOCKED: ENDBRANCH  13  14
DOCKED: ENDBRANCH  12  13
DOCKED: ENDBRANCH  11  12
DOCKED: ENDBRANCH   6  11
DOCKED: ENDBRANCH   1   2
DOCKED: END_RES 5BU B 11
DOCKED: TER
DOCKED: ENDMDL
________________________________________________________________________________


    FINAL DOCKED STATE:
    ________________________


Run:   8 / 20
Time taken for this run:   0.039s

DOCKED: MODEL        8
DOCKED: USER    Run = 8
DOCKED: USER
DOCKED: USER    Estimated Free Energy of Binding    =  -2.92 kcal/mol  [=(1)+(2)+(3)-(4)]
DOCKED: USER
DOCKED: USER    (1) Final Intermolecular Energy     =  +0.00 kcal/mol
DOCKED: USER        vdW + Hbond + desolv Energy     =  +0.00 kcal/mol
DOCKED: USER        Electrostatic Energy            =  +0.00 kcal/mol
DOCKED: USER        Moving Ligand-Fixed Receptor    =  +0.00 kcal/mol
DOCKED: USER        Moving Ligand-Moving Receptor   =  +0.00 kcal/mol
DOCKED: USER    (2) Final Total Internal Energy     =  -2.92 kcal/mol
DOCKED: USER    (3) Torsional Free Energy           =  +0.00 kcal/mol
DOCKED: USER    (4) Unbound System's Energy         =  +0.00 kcal/mol
DOCKED: USER
DOCKED: USER
DOCKED: BEGIN_RES 5BU B 11
DOCKED: REMARK SMILES Cn1cc(/N=C/CCCc2ccccc2)c(=O)[nH]c1=O
DOCKED: REMARK SMILES IDX 1 1 2 2 19 3 3 4 18 5 4 6 16 7 20 8 17 10 5 11 6 12 7 13
DOCKED: REMARK SMILES IDX 8 14 9 15 10 16 11 17 15 18 12 19 14 20 13 21
DOCKED: REMARK H PARENT 18 9
DOCKED: USER                              x       y       z     vdW  Elec       q    Type
DOCKED: USER                           _______ _______ _______ _____ _____    ______ ____
DOCKED: ROOT
DOCKED: ATOM      1  C   UNL     1     -13.682  -3.095  -4.050 +0.00 +0.00    +0.154 C  
DOCKED: ENDROOT
DOCKED: BRANCH   1   2
DOCKED: ATOM      2  N   UNL     1     -14.333  -1.896  -4.555 +0.00 +0.00    -0.301 N  
DOCKED: ATOM      3  C   UNL     1     -13.594  -0.967  -5.273 +1.99 -0.72    +0.328 C  
DOCKED: ATOM      4  C   UNL     1     -15.685  -1.733  -4.326 +2.66 -0.32    +0.124 C  
DOCKED: ATOM      5  N   UNL     1     -14.295   0.118  -5.724 -0.44 +0.66    -0.272 N  
DOCKED: ATOM      6  C   UNL     1     -16.387  -0.672  -4.746 -0.56 -0.39    +0.144 C  
DOCKED: ATOM      7  C   UNL     1     -15.629   0.359  -5.540 -0.39 -0.69    +0.279 C  
DOCKED: ATOM      8  O   UNL     1     -12.393  -1.065  -5.512 -0.34 +0.56    -0.248 OA 
DOCKED: ATOM      9  H   UNL     1     -13.777   0.799  -6.256 -0.28 -0.46    +0.175 HD 
DOCKED: ATOM     10  O   UNL     1     -16.159   1.371  -5.992 -0.94 +0.66    -0.267 OA 
DOCKED: BRANCH   6  11
DOCKED: ATOM     11  N   UNL     1     -17.743  -0.588  -4.523 -0.29 +0.76    -0.254 NA 
DOCKED: BRANCH  11  12
DOCKED: ATOM     12  C   UNL     1     -18.487  -1.348  -5.259 -0.40 -0.26    +0.084 C  
DOCKED: BRANCH  12  13
DOCKED: ATOM     13  C   UNL     1     -19.923  -0.981  -5.517 -0.40 -0.15    +0.048 C  
DOCKED: BRANCH  13  14
DOCKED: ATOM     14  C   UNL     1     -19.977   0.304  -6.342 -0.30 -0.03    +0.010 C  
DOCKED: BRANCH  14  15
DOCKED: ATOM     15  C   UNL     1     -21.050   0.267  -7.434 -0.31 -0.12    +0.036 C  
DOCKED: BRANCH  15  16
DOCKED: ATOM     16  C   UNL     1     -20.693   1.073  -8.658 -0.25 +0.16    -0.048 A  
DOCKED: ATOM     17  C   UNL     1     -21.395   0.893  -9.857 -0.42 -0.01    +0.004 A  
DOCKED: ATOM     18  C   UNL     1     -19.647   2.005  -8.617 -0.23 -0.01    +0.004 A  
DOCKED: ATOM     19  C   UNL     1     -21.059   1.630 -10.993 -0.43 -0.00    +0.000 A  
DOCKED: ATOM     20  C   UNL     1     -19.311   2.741  -9.754 -0.26 -0.00    +0.000 A  
DOCKED: ATOM     21  C   UNL     1     -20.015   2.554 -10.942 -0.33 -0.00    +0.000 A  
DOCKED: ENDBRANCH  15  16
DOCKED: ENDBRANCH  14  15
DOCKED: ENDBRANCH  13  14
DOCKED: ENDBRANCH  12  13
DOCKED: ENDBRANCH  11  12
DOCKED: ENDBRANCH   6  11
DOCKED: ENDBRANCH   1   2
DOCKED: END_RES 5BU B 11
DOCKED: TER
DOCKED: ENDMDL
________________________________________________________________________________


    FINAL DOCKED STATE:
    ________________________


Run:   9 / 20
Time taken for this run:   0.039s

DOCKED: MODEL        9
DOCKED: USER    Run = 9
DOCKED: USER
DOCKED: USER    Estimated Free Energy of Binding    =  -2.91 kcal/mol  [=(1)+(2)+(3)-(4)]
DOCKED: USER
DOCKED: USER    (1) Final Intermolecular Energy     =  +0.00 kcal/mol
DOCKED: USER        vdW + Hbond + desolv Energy     =  +0.00 kcal/mol
DOCKED: USER        Electrostatic Energy            =  +0.00 kcal/mol
DOCKED: USER        Moving Ligand-Fixed Receptor    =  +0.00 kcal/mol
DOCKED: USER        Moving Ligand-Moving Receptor   =  +0.00 kcal/mol
DOCKED: USER    (2) Final Total Internal Energy     =  -2.91 kcal/mol
DOCKED: USER    (3) Torsional Free Energy           =  +0.00 kcal/mol
DOCKED: USER    (4) Unbound System's Energy         =  +0.00 kcal/mol
DOCKED: USER
DOCKED: USER
DOCKED: BEGIN_RES 5BU B 11
DOCKED: REMARK SMILES Cn1cc(/N=C/CCCc2ccccc2)c(=O)[nH]c1=O
DOCKED: REMARK SMILES IDX 1 1 2 2 19 3 3 4 18 5 4 6 16 7 20 8 17 10 5 11 6 12 7 13
DOCKED: REMARK SMILES IDX 8 14 9 15 10 16 11 17 15 18 12 19 14 20 13 21
DOCKED: REMARK H PARENT 18 9
DOCKED: USER                              x       y       z     vdW  Elec       q    Type
DOCKED: USER                           _______ _______ _______ _____ _____    ______ ____
DOCKED: ROOT
DOCKED: ATOM      1  C   UNL     1     -13.682  -3.095  -4.050 +0.00 +0.00    +0.154 C  
DOCKED: ENDROOT
DOCKED: BRANCH   1   2
DOCKED: ATOM      2  N   UNL     1     -14.333  -1.896  -4.555 +0.00 +0.00    -0.301 N  
DOCKED: ATOM      3  C   UNL     1     -13.594  -0.966  -5.272 +1.99 -0.72    +0.328 C  
DOCKED: ATOM      4  C   UNL     1     -15.685  -1.733  -4.327 +2.66 -0.32    +0.124 C  
DOCKED: ATOM      5  N   UNL     1     -14.295   0.118  -5.724 -0.44 +0.66    -0.272 N  
DOCKED: ATOM      6  C   UNL     1     -16.387  -0.672  -4.746 -0.56 -0.39    +0.144 C  
DOCKED: ATOM      7  C   UNL     1     -15.629   0.359  -5.540 -0.39 -0.69    +0.279 C  
DOCKED: ATOM      8  O   UNL     1     -12.392  -1.065  -5.511 -0.34 +0.56    -0.248 OA 
DOCKED: ATOM      9  H   UNL     1     -13.777   0.799  -6.255 -0.28 -0.46    +0.175 HD 
DOCKED: ATOM     10  O   UNL     1     -16.159   1.371  -5.992 -0.94 +0.66    -0.267 OA 
DOCKED: BRANCH   6  11
DOCKED: ATOM     11  N   UNL     1     -17.743  -0.588  -4.523 -0.29 +0.76    -0.254 NA 
DOCKED: BRANCH  11  12
DOCKED: ATOM     12  C   UNL     1     -18.498  -1.190  -5.384 -0.37 -0.25    +0.084 C  
DOCKED: BRANCH  12  13
DOCKED: ATOM     13  C   UNL     1     -19.872  -0.659  -5.689 -0.38 -0.15    +0.048 C  
DOCKED: BRANCH  13  14
DOCKED: ATOM     14  C   UNL     1     -19.816   0.864  -5.789 -0.25 -0.03    +0.010 C  
DOCKED: BRANCH  14  15
DOCKED: ATOM     15  C   UNL     1     -20.150   1.383  -7.190 -0.23 -0.11    +0.036 C  
DOCKED: BRANCH  15  16
DOCKED: ATOM     16  C   UNL     1     -19.094   2.296  -7.763 -0.22 +0.15    -0.048 A  
DOCKED: ATOM     17  C   UNL     1     -18.905   2.383  -9.149 -0.26 -0.01    +0.004 A  
DOCKED: ATOM     18  C   UNL     1     -18.279   3.062  -6.917 -0.32 -0.01    +0.004 A  
DOCKED: ATOM     19  C   UNL     1     -17.922   3.219  -9.678 -0.24 -0.00    +0.000 A  
DOCKED: ATOM     20  C   UNL     1     -17.296   3.897  -7.449 -0.40 -0.00    +0.000 A  
DOCKED: ATOM     21  C   UNL     1     -17.116   3.976  -8.828 -0.35 -0.00    +0.000 A  
DOCKED: ENDBRANCH  15  16
DOCKED: ENDBRANCH  14  15
DOCKED: ENDBRANCH  13  14
DOCKED: ENDBRANCH  12  13
DOCKED: ENDBRANCH  11  12
DOCKED: ENDBRANCH   6  11
DOCKED: ENDBRANCH   1   2
DOCKED: END_RES 5BU B 11
DOCKED: TER
DOCKED: ENDMDL
________________________________________________________________________________


    FINAL DOCKED STATE:
    ________________________


Run:   10 / 20
Time taken for this run:   0.039s

DOCKED: MODEL        10
DOCKED: USER    Run = 10
DOCKED: USER
DOCKED: USER    Estimated Free Energy of Binding    =  -2.92 kcal/mol  [=(1)+(2)+(3)-(4)]
DOCKED: USER
DOCKED: USER    (1) Final Intermolecular Energy     =  +0.00 kcal/mol
DOCKED: USER        vdW + Hbond + desolv Energy     =  +0.00 kcal/mol
DOCKED: USER        Electrostatic Energy            =  +0.00 kcal/mol
DOCKED: USER        Moving Ligand-Fixed Receptor    =  +0.00 kcal/mol
DOCKED: USER        Moving Ligand-Moving Receptor   =  +0.00 kcal/mol
DOCKED: USER    (2) Final Total Internal Energy     =  -2.92 kcal/mol
DOCKED: USER    (3) Torsional Free Energy           =  +0.00 kcal/mol
DOCKED: USER    (4) Unbound System's Energy         =  +0.00 kcal/mol
DOCKED: USER
DOCKED: USER
DOCKED: BEGIN_RES 5BU B 11
DOCKED: REMARK SMILES Cn1cc(/N=C/CCCc2ccccc2)c(=O)[nH]c1=O
DOCKED: REMARK SMILES IDX 1 1 2 2 19 3 3 4 18 5 4 6 16 7 20 8 17 10 5 11 6 12 7 13
DOCKED: REMARK SMILES IDX 8 14 9 15 10 16 11 17 15 18 12 19 14 20 13 21
DOCKED: REMARK H PARENT 18 9
DOCKED: USER                              x       y       z     vdW  Elec       q    Type
DOCKED: USER                           _______ _______ _______ _____ _____    ______ ____
DOCKED: ROOT
DOCKED: ATOM      1  C   UNL     1     -13.682  -3.095  -4.050 +0.00 +0.00    +0.154 C  
DOCKED: ENDROOT
DOCKED: BRANCH   1   2
DOCKED: ATOM      2  N   UNL     1     -14.333  -1.896  -4.555 +0.00 +0.00    -0.301 N  
DOCKED: ATOM      3  C   UNL     1     -13.594  -0.967  -5.273 +1.99 -0.72    +0.328 C  
DOCKED: ATOM      4  C   UNL     1     -15.685  -1.733  -4.326 +2.66 -0.32    +0.124 C  
DOCKED: ATOM      5  N   UNL     1     -14.295   0.118  -5.724 -0.44 +0.66    -0.272 N  
DOCKED: ATOM      6  C   UNL     1     -16.387  -0.672  -4.745 -0.56 -0.39    +0.144 C  
DOCKED: ATOM      7  C   UNL     1     -15.629   0.359  -5.540 -0.39 -0.69    +0.279 C  
DOCKED: ATOM      8  O   UNL     1     -12.393  -1.065  -5.512 -0.34 +0.56    -0.248 OA 
DOCKED: ATOM      9  H   UNL     1     -13.777   0.798  -6.256 -0.28 -0.46    +0.175 HD 
DOCKED: ATOM     10  O   UNL     1     -16.159   1.371  -5.992 -0.94 +0.66    -0.267 OA 
DOCKED: BRANCH   6  11
DOCKED: ATOM     11  N   UNL     1     -17.743  -0.588  -4.522 -0.29 +0.76    -0.254 NA 
DOCKED: BRANCH  11  12
DOCKED: ATOM     12  C   UNL     1     -18.486  -1.363  -5.243 -0.40 -0.26    +0.084 C  
DOCKED: BRANCH  12  13
DOCKED: ATOM     13  C   UNL     1     -19.898  -0.966  -5.574 -0.40 -0.15    +0.048 C  
DOCKED: BRANCH  13  14
DOCKED: ATOM     14  C   UNL     1     -19.905   0.447  -6.155 -0.30 -0.03    +0.010 C  
DOCKED: BRANCH  14  15
DOCKED: ATOM     15  C   UNL     1     -21.088   0.701  -7.093 -0.26 -0.12    +0.036 C  
DOCKED: BRANCH  15  16
DOCKED: ATOM     16  C   UNL     1     -20.679   1.180  -8.464 -0.24 +0.16    -0.048 A  
DOCKED: ATOM     17  C   UNL     1     -19.557   2.004  -8.624 -0.22 -0.01    +0.004 A  
DOCKED: ATOM     18  C   UNL     1     -21.420   0.816  -9.597 -0.42 -0.01    +0.004 A  
DOCKED: ATOM     19  C   UNL     1     -19.184   2.456  -9.889 -0.29 -0.00    +0.000 A  
DOCKED: ATOM     20  C   UNL     1     -21.046   1.270 -10.862 -0.38 -0.00    +0.000 A  
DOCKED: ATOM     21  C   UNL     1     -19.930   2.090 -11.010 -0.39 -0.00    +0.000 A  
DOCKED: ENDBRANCH  15  16
DOCKED: ENDBRANCH  14  15
DOCKED: ENDBRANCH  13  14
DOCKED: ENDBRANCH  12  13
DOCKED: ENDBRANCH  11  12
DOCKED: ENDBRANCH   6  11
DOCKED: ENDBRANCH   1   2
DOCKED: END_RES 5BU B 11
DOCKED: TER
DOCKED: ENDMDL
________________________________________________________________________________


    FINAL DOCKED STATE:
    ________________________


Run:   11 / 20
Time taken for this run:   0.039s

DOCKED: MODEL        11
DOCKED: USER    Run = 11
DOCKED: USER
DOCKED: USER    Estimated Free Energy of Binding    =  -2.93 kcal/mol  [=(1)+(2)+(3)-(4)]
DOCKED: USER
DOCKED: USER    (1) Final Intermolecular Energy     =  +0.00 kcal/mol
DOCKED: USER        vdW + Hbond + desolv Energy     =  +0.00 kcal/mol
DOCKED: USER        Electrostatic Energy            =  +0.00 kcal/mol
DOCKED: USER        Moving Ligand-Fixed Receptor    =  +0.00 kcal/mol
DOCKED: USER        Moving Ligand-Moving Receptor   =  +0.00 kcal/mol
DOCKED: USER    (2) Final Total Internal Energy     =  -2.93 kcal/mol
DOCKED: USER    (3) Torsional Free Energy           =  +0.00 kcal/mol
DOCKED: USER    (4) Unbound System's Energy         =  +0.00 kcal/mol
DOCKED: USER
DOCKED: USER
DOCKED: BEGIN_RES 5BU B 11
DOCKED: REMARK SMILES Cn1cc(/N=C/CCCc2ccccc2)c(=O)[nH]c1=O
DOCKED: REMARK SMILES IDX 1 1 2 2 19 3 3 4 18 5 4 6 16 7 20 8 17 10 5 11 6 12 7 13
DOCKED: REMARK SMILES IDX 8 14 9 15 10 16 11 17 15 18 12 19 14 20 13 21
DOCKED: REMARK H PARENT 18 9
DOCKED: USER                              x       y       z     vdW  Elec       q    Type
DOCKED: USER                           _______ _______ _______ _____ _____    ______ ____
DOCKED: ROOT
DOCKED: ATOM      1  C   UNL     1     -13.682  -3.095  -4.050 +0.00 +0.00    +0.154 C  
DOCKED: ENDROOT
DOCKED: BRANCH   1   2
DOCKED: ATOM      2  N   UNL     1     -14.333  -1.896  -4.555 +0.00 +0.00    -0.301 N  
DOCKED: ATOM      3  C   UNL     1     -13.594  -0.967  -5.273 +1.99 -0.72    +0.328 C  
DOCKED: ATOM      4  C   UNL     1     -15.685  -1.733  -4.326 +2.66 -0.32    +0.124 C  
DOCKED: ATOM      5  N   UNL     1     -14.295   0.118  -5.725 -0.44 +0.66    -0.272 N  
DOCKED: ATOM      6  C   UNL     1     -16.387  -0.671  -4.745 -0.56 -0.39    +0.144 C  
DOCKED: ATOM      7  C   UNL     1     -15.629   0.359  -5.540 -0.39 -0.69    +0.279 C  
DOCKED: ATOM      8  O   UNL     1     -12.393  -1.066  -5.513 -0.34 +0.56    -0.248 OA 
DOCKED: ATOM      9  H   UNL     1     -13.777   0.798  -6.257 -0.28 -0.45    +0.175 HD 
DOCKED: ATOM     10  O   UNL     1     -16.160   1.371  -5.992 -0.94 +0.66    -0.267 OA 
DOCKED: BRANCH   6  11
DOCKED: ATOM     11  N   UNL     1     -17.743  -0.587  -4.521 -0.29 +0.76    -0.254 NA 
DOCKED: BRANCH  11  12
DOCKED: ATOM     12  C   UNL     1     -18.487  -1.351  -5.252 -0.40 -0.26    +0.084 C  
DOCKED: BRANCH  12  13
DOCKED: ATOM     13  C   UNL     1     -19.922  -0.984  -5.517 -0.40 -0.15    +0.048 C  
DOCKED: BRANCH  13  14
DOCKED: ATOM     14  C   UNL     1     -19.972   0.299  -6.345 -0.30 -0.03    +0.010 C  
DOCKED: BRANCH  14  15
DOCKED: ATOM     15  C   UNL     1     -21.184   0.358  -7.279 -0.29 -0.12    +0.036 C  
DOCKED: BRANCH  15  16
DOCKED: ATOM     16  C   UNL     1     -20.881   0.977  -8.621 -0.27 +0.16    -0.048 A  
DOCKED: ATOM     17  C   UNL     1     -19.801   1.858  -8.770 -0.21 -0.01    +0.004 A  
DOCKED: ATOM     18  C   UNL     1     -21.681   0.689  -9.735 -0.43 -0.02    +0.004 A  
DOCKED: ATOM     19  C   UNL     1     -19.527   2.439 -10.008 -0.29 -0.00    +0.000 A  
DOCKED: ATOM     20  C   UNL     1     -21.405   1.271 -10.973 -0.37 -0.00    +0.000 A  
DOCKED: ATOM     21  C   UNL     1     -20.330   2.146 -11.110 -0.40 -0.00    +0.000 A  
DOCKED: ENDBRANCH  15  16
DOCKED: ENDBRANCH  14  15
DOCKED: ENDBRANCH  13  14
DOCKED: ENDBRANCH  12  13
DOCKED: ENDBRANCH  11  12
DOCKED: ENDBRANCH   6  11
DOCKED: ENDBRANCH   1   2
DOCKED: END_RES 5BU B 11
DOCKED: TER
DOCKED: ENDMDL
________________________________________________________________________________


    FINAL DOCKED STATE:
    ________________________


Run:   12 / 20
Time taken for this run:   0.039s

DOCKED: MODEL        12
DOCKED: USER    Run = 12
DOCKED: USER
DOCKED: USER    Estimated Free Energy of Binding    =  -2.92 kcal/mol  [=(1)+(2)+(3)-(4)]
DOCKED: USER
DOCKED: USER    (1) Final Intermolecular Energy     =  +0.00 kcal/mol
DOCKED: USER        vdW + Hbond + desolv Energy     =  +0.00 kcal/mol
DOCKED: USER        Electrostatic Energy            =  +0.00 kcal/mol
DOCKED: USER        Moving Ligand-Fixed Receptor    =  +0.00 kcal/mol
DOCKED: USER        Moving Ligand-Moving Receptor   =  +0.00 kcal/mol
DOCKED: USER    (2) Final Total Internal Energy     =  -2.92 kcal/mol
DOCKED: USER    (3) Torsional Free Energy           =  +0.00 kcal/mol
DOCKED: USER    (4) Unbound System's Energy         =  +0.00 kcal/mol
DOCKED: USER
DOCKED: USER
DOCKED: BEGIN_RES 5BU B 11
DOCKED: REMARK SMILES Cn1cc(/N=C/CCCc2ccccc2)c(=O)[nH]c1=O
DOCKED: REMARK SMILES IDX 1 1 2 2 19 3 3 4 18 5 4 6 16 7 20 8 17 10 5 11 6 12 7 13
DOCKED: REMARK SMILES IDX 8 14 9 15 10 16 11 17 15 18 12 19 14 20 13 21
DOCKED: REMARK H PARENT 18 9
DOCKED: USER                              x       y       z     vdW  Elec       q    Type
DOCKED: USER                           _______ _______ _______ _____ _____    ______ ____
DOCKED: ROOT
DOCKED: ATOM      1  C   UNL     1     -13.682  -3.095  -4.050 +0.00 +0.00    +0.154 C  
DOCKED: ENDROOT
DOCKED: BRANCH   1   2
DOCKED: ATOM      2  N   UNL     1     -14.333  -1.896  -4.555 +0.00 +0.00    -0.301 N  
DOCKED: ATOM      3  C   UNL     1     -13.594  -0.967  -5.272 +1.99 -0.72    +0.328 C  
DOCKED: ATOM      4  C   UNL     1     -15.685  -1.733  -4.326 +2.66 -0.32    +0.124 C  
DOCKED: ATOM      5  N   UNL     1     -14.295   0.118  -5.724 -0.44 +0.66    -0.272 N  
DOCKED: ATOM      6  C   UNL     1     -16.387  -0.672  -4.746 -0.56 -0.39    +0.144 C  
DOCKED: ATOM      7  C   UNL     1     -15.629   0.359  -5.540 -0.39 -0.69    +0.279 C  
DOCKED: ATOM      8  O   UNL     1     -12.393  -1.065  -5.512 -0.34 +0.56    -0.248 OA 
DOCKED: ATOM      9  H   UNL     1     -13.777   0.799  -6.256 -0.28 -0.46    +0.175 HD 
DOCKED: ATOM     10  O   UNL     1     -16.159   1.371  -5.992 -0.94 +0.66    -0.267 OA 
DOCKED: BRANCH   6  11
DOCKED: ATOM     11  N   UNL     1     -17.743  -0.588  -4.523 -0.29 +0.76    -0.254 NA 
DOCKED: BRANCH  11  12
DOCKED: ATOM     12  C   UNL     1     -18.486  -1.358  -5.249 -0.40 -0.26    +0.084 C  
DOCKED: BRANCH  12  13
DOCKED: ATOM     13  C   UNL     1     -19.880  -0.933  -5.623 -0.39 -0.15    +0.048 C  
DOCKED: BRANCH  13  14
DOCKED: ATOM     14  C   UNL     1     -19.933   0.590  -5.733 -0.27 -0.03    +0.010 C  
DOCKED: BRANCH  14  15
DOCKED: ATOM     15  C   UNL     1     -20.309   1.073  -7.136 -0.25 -0.11    +0.036 C  
DOCKED: BRANCH  15  16
DOCKED: ATOM     16  C   UNL     1     -19.297   2.016  -7.740 -0.20 +0.15    -0.048 A  
DOCKED: ATOM     17  C   UNL     1     -18.465   2.787  -6.918 -0.31 -0.01    +0.004 A  
DOCKED: ATOM     18  C   UNL     1     -19.181   2.141  -9.131 -0.23 -0.01    +0.004 A  
DOCKED: ATOM     19  C   UNL     1     -17.536   3.666  -7.475 -0.38 -0.00    +0.000 A  
DOCKED: ATOM     20  C   UNL     1     -18.252   3.021  -9.687 -0.25 -0.00    +0.000 A  
DOCKED: ATOM     21  C   UNL     1     -17.430   3.784  -8.861 -0.32 -0.00    +0.000 A  
DOCKED: ENDBRANCH  15  16
DOCKED: ENDBRANCH  14  15
DOCKED: ENDBRANCH  13  14
DOCKED: ENDBRANCH  12  13
DOCKED: ENDBRANCH  11  12
DOCKED: ENDBRANCH   6  11
DOCKED: ENDBRANCH   1   2
DOCKED: END_RES 5BU B 11
DOCKED: TER
DOCKED: ENDMDL
________________________________________________________________________________


    FINAL DOCKED STATE:
    ________________________


Run:   13 / 20
Time taken for this run:   0.039s

DOCKED: MODEL        13
DOCKED: USER    Run = 13
DOCKED: USER
DOCKED: USER    Estimated Free Energy of Binding    =  -2.93 kcal/mol  [=(1)+(2)+(3)-(4)]
DOCKED: USER
DOCKED: USER    (1) Final Intermolecular Energy     =  +0.00 kcal/mol
DOCKED: USER        vdW + Hbond + desolv Energy     =  +0.00 kcal/mol
DOCKED: USER        Electrostatic Energy            =  +0.00 kcal/mol
DOCKED: USER        Moving Ligand-Fixed Receptor    =  +0.00 kcal/mol
DOCKED: USER        Moving Ligand-Moving Receptor   =  +0.00 kcal/mol
DOCKED: USER    (2) Final Total Internal Energy     =  -2.93 kcal/mol
DOCKED: USER    (3) Torsional Free Energy           =  +0.00 kcal/mol
DOCKED: USER    (4) Unbound System's Energy         =  +0.00 kcal/mol
DOCKED: USER
DOCKED: USER
DOCKED: BEGIN_RES 5BU B 11
DOCKED: REMARK SMILES Cn1cc(/N=C/CCCc2ccccc2)c(=O)[nH]c1=O
DOCKED: REMARK SMILES IDX 1 1 2 2 19 3 3 4 18 5 4 6 16 7 20 8 17 10 5 11 6 12 7 13
DOCKED: REMARK SMILES IDX 8 14 9 15 10 16 11 17 15 18 12 19 14 20 13 21
DOCKED: REMARK H PARENT 18 9
DOCKED: USER                              x       y       z     vdW  Elec       q    Type
DOCKED: USER                           _______ _______ _______ _____ _____    ______ ____
DOCKED: ROOT
DOCKED: ATOM      1  C   UNL     1     -13.682  -3.095  -4.050 +0.00 +0.00    +0.154 C  
DOCKED: ENDROOT
DOCKED: BRANCH   1   2
DOCKED: ATOM      2  N   UNL     1     -14.333  -1.896  -4.555 +0.00 +0.00    -0.301 N  
DOCKED: ATOM      3  C   UNL     1     -13.594  -0.967  -5.274 +1.99 -0.72    +0.328 C  
DOCKED: ATOM      4  C   UNL     1     -15.685  -1.733  -4.325 +2.66 -0.32    +0.124 C  
DOCKED: ATOM      5  N   UNL     1     -14.295   0.117  -5.725 -0.44 +0.66    -0.272 N  
DOCKED: ATOM      6  C   UNL     1     -16.387  -0.671  -4.744 -0.56 -0.39    +0.144 C  
DOCKED: ATOM      7  C   UNL     1     -15.629   0.359  -5.540 -0.39 -0.69    +0.279 C  
DOCKED: ATOM      8  O   UNL     1     -12.393  -1.066  -5.514 -0.34 +0.56    -0.248 OA 
DOCKED: ATOM      9  H   UNL     1     -13.777   0.798  -6.257 -0.28 -0.45    +0.175 HD 
DOCKED: ATOM     10  O   UNL     1     -16.160   1.371  -5.992 -0.94 +0.66    -0.267 OA 
DOCKED: BRANCH   6  11
DOCKED: ATOM     11  N   UNL     1     -17.743  -0.587  -4.521 -0.29 +0.76    -0.254 NA 
DOCKED: BRANCH  11  12
DOCKED: ATOM     12  C   UNL     1     -18.487  -1.356  -5.247 -0.41 -0.26    +0.084 C  
DOCKED: BRANCH  12  13
DOCKED: ATOM     13  C   UNL     1     -19.915  -0.980  -5.530 -0.40 -0.15    +0.048 C  
DOCKED: BRANCH  13  14
DOCKED: ATOM     14  C   UNL     1     -19.948   0.305  -6.355 -0.30 -0.03    +0.010 C  
DOCKED: BRANCH  14  15
DOCKED: ATOM     15  C   UNL     1     -21.179   0.403  -7.259 -0.29 -0.12    +0.036 C  
DOCKED: BRANCH  15  16
DOCKED: ATOM     16  C   UNL     1     -20.890   1.017  -8.607 -0.26 +0.16    -0.048 A  
DOCKED: ATOM     17  C   UNL     1     -21.689   0.707  -9.716 -0.43 -0.02    +0.004 A  
DOCKED: ATOM     18  C   UNL     1     -19.813   1.899  -8.772 -0.22 -0.01    +0.004 A  
DOCKED: ATOM     19  C   UNL     1     -21.416   1.266 -10.964 -0.37 -0.00    +0.000 A  
DOCKED: ATOM     20  C   UNL     1     -19.541   2.457 -10.021 -0.29 -0.00    +0.000 A  
DOCKED: ATOM     21  C   UNL     1     -20.341   2.141 -11.117 -0.40 -0.00    +0.000 A  
DOCKED: ENDBRANCH  15  16
DOCKED: ENDBRANCH  14  15
DOCKED: ENDBRANCH  13  14
DOCKED: ENDBRANCH  12  13
DOCKED: ENDBRANCH  11  12
DOCKED: ENDBRANCH   6  11
DOCKED: ENDBRANCH   1   2
DOCKED: END_RES 5BU B 11
DOCKED: TER
DOCKED: ENDMDL
________________________________________________________________________________


    FINAL DOCKED STATE:
    ________________________


Run:   14 / 20
Time taken for this run:   0.039s

DOCKED: MODEL        14
DOCKED: USER    Run = 14
DOCKED: USER
DOCKED: USER    Estimated Free Energy of Binding    =  -2.92 kcal/mol  [=(1)+(2)+(3)-(4)]
DOCKED: USER
DOCKED: USER    (1) Final Intermolecular Energy     =  +0.00 kcal/mol
DOCKED: USER        vdW + Hbond + desolv Energy     =  +0.00 kcal/mol
DOCKED: USER        Electrostatic Energy            =  +0.00 kcal/mol
DOCKED: USER        Moving Ligand-Fixed Receptor    =  +0.00 kcal/mol
DOCKED: USER        Moving Ligand-Moving Receptor   =  +0.00 kcal/mol
DOCKED: USER    (2) Final Total Internal Energy     =  -2.92 kcal/mol
DOCKED: USER    (3) Torsional Free Energy           =  +0.00 kcal/mol
DOCKED: USER    (4) Unbound System's Energy         =  +0.00 kcal/mol
DOCKED: USER
DOCKED: USER
DOCKED: BEGIN_RES 5BU B 11
DOCKED: REMARK SMILES Cn1cc(/N=C/CCCc2ccccc2)c(=O)[nH]c1=O
DOCKED: REMARK SMILES IDX 1 1 2 2 19 3 3 4 18 5 4 6 16 7 20 8 17 10 5 11 6 12 7 13
DOCKED: REMARK SMILES IDX 8 14 9 15 10 16 11 17 15 18 12 19 14 20 13 21
DOCKED: REMARK H PARENT 18 9
DOCKED: USER                              x       y       z     vdW  Elec       q    Type
DOCKED: USER                           _______ _______ _______ _____ _____    ______ ____
DOCKED: ROOT
DOCKED: ATOM      1  C   UNL     1     -13.682  -3.095  -4.050 +0.00 +0.00    +0.154 C  
DOCKED: ENDROOT
DOCKED: BRANCH   1   2
DOCKED: ATOM      2  N   UNL     1     -14.333  -1.896  -4.555 +0.00 +0.00    -0.301 N  
DOCKED: ATOM      3  C   UNL     1     -13.594  -0.967  -5.273 +1.99 -0.72    +0.328 C  
DOCKED: ATOM      4  C   UNL     1     -15.685  -1.733  -4.326 +2.66 -0.32    +0.124 C  
DOCKED: ATOM      5  N   UNL     1     -14.295   0.118  -5.725 -0.44 +0.66    -0.272 N  
DOCKED: ATOM      6  C   UNL     1     -16.387  -0.671  -4.745 -0.56 -0.39    +0.144 C  
DOCKED: ATOM      7  C   UNL     1     -15.629   0.359  -5.540 -0.39 -0.69    +0.279 C  
DOCKED: ATOM      8  O   UNL     1     -12.393  -1.066  -5.513 -0.34 +0.56    -0.248 OA 
DOCKED: ATOM      9  H   UNL     1     -13.777   0.798  -6.257 -0.28 -0.45    +0.175 HD 
DOCKED: ATOM     10  O   UNL     1     -16.160   1.371  -5.992 -0.94 +0.66    -0.267 OA 
DOCKED: BRANCH   6  11
DOCKED: ATOM     11  N   UNL     1     -17.743  -0.587  -4.521 -0.29 +0.76    -0.254 NA 
DOCKED: BRANCH  11  12
DOCKED: ATOM     12  C   UNL     1     -18.487  -1.353  -5.251 -0.40 -0.26    +0.084 C  
DOCKED: BRANCH  12  13
DOCKED: ATOM     13  C   UNL     1     -19.890  -0.938  -5.598 -0.40 -0.15    +0.048 C  
DOCKED: BRANCH  13  14
DOCKED: ATOM     14  C   UNL     1     -19.953   0.583  -5.724 -0.27 -0.03    +0.010 C  
DOCKED: BRANCH  14  15
DOCKED: ATOM     15  C   UNL     1     -20.309   1.051  -7.137 -0.25 -0.11    +0.036 C  
DOCKED: BRANCH  15  16
DOCKED: ATOM     16  C   UNL     1     -19.308   2.016  -7.723 -0.20 +0.15    -0.048 A  
DOCKED: ATOM     17  C   UNL     1     -19.180   2.151  -9.112 -0.23 -0.01    +0.004 A  
DOCKED: ATOM     18  C   UNL     1     -18.486   2.784  -6.888 -0.31 -0.01    +0.004 A  
DOCKED: ATOM     19  C   UNL     1     -18.247   3.035  -9.655 -0.25 -0.00    +0.000 A  
DOCKED: ATOM     20  C   UNL     1     -17.554   3.668  -7.432 -0.37 -0.00    +0.000 A  
DOCKED: ATOM     21  C   UNL     1     -17.433   3.794  -8.815 -0.33 -0.00    +0.000 A  
DOCKED: ENDBRANCH  15  16
DOCKED: ENDBRANCH  14  15
DOCKED: ENDBRANCH  13  14
DOCKED: ENDBRANCH  12  13
DOCKED: ENDBRANCH  11  12
DOCKED: ENDBRANCH   6  11
DOCKED: ENDBRANCH   1   2
DOCKED: END_RES 5BU B 11
DOCKED: TER
DOCKED: ENDMDL
________________________________________________________________________________


    FINAL DOCKED STATE:
    ________________________


Run:   15 / 20
Time taken for this run:   0.039s

DOCKED: MODEL        15
DOCKED: USER    Run = 15
DOCKED: USER
DOCKED: USER    Estimated Free Energy of Binding    =  -2.92 kcal/mol  [=(1)+(2)+(3)-(4)]
DOCKED: USER
DOCKED: USER    (1) Final Intermolecular Energy     =  +0.00 kcal/mol
DOCKED: USER        vdW + Hbond + desolv Energy     =  +0.00 kcal/mol
DOCKED: USER        Electrostatic Energy            =  +0.00 kcal/mol
DOCKED: USER        Moving Ligand-Fixed Receptor    =  +0.00 kcal/mol
DOCKED: USER        Moving Ligand-Moving Receptor   =  +0.00 kcal/mol
DOCKED: USER    (2) Final Total Internal Energy     =  -2.92 kcal/mol
DOCKED: USER    (3) Torsional Free Energy           =  +0.00 kcal/mol
DOCKED: USER    (4) Unbound System's Energy         =  +0.00 kcal/mol
DOCKED: USER
DOCKED: USER
DOCKED: BEGIN_RES 5BU B 11
DOCKED: REMARK SMILES Cn1cc(/N=C/CCCc2ccccc2)c(=O)[nH]c1=O
DOCKED: REMARK SMILES IDX 1 1 2 2 19 3 3 4 18 5 4 6 16 7 20 8 17 10 5 11 6 12 7 13
DOCKED: REMARK SMILES IDX 8 14 9 15 10 16 11 17 15 18 12 19 14 20 13 21
DOCKED: REMARK H PARENT 18 9
DOCKED: USER                              x       y       z     vdW  Elec       q    Type
DOCKED: USER                           _______ _______ _______ _____ _____    ______ ____
DOCKED: ROOT
DOCKED: ATOM      1  C   UNL     1     -13.682  -3.095  -4.050 +0.00 +0.00    +0.154 C  
DOCKED: ENDROOT
DOCKED: BRANCH   1   2
DOCKED: ATOM      2  N   UNL     1     -14.333  -1.896  -4.555 +0.00 +0.00    -0.301 N  
DOCKED: ATOM      3  C   UNL     1     -13.594  -0.967  -5.273 +1.99 -0.72    +0.328 C  
DOCKED: ATOM      4  C   UNL     1     -15.685  -1.733  -4.326 +2.66 -0.32    +0.124 C  
DOCKED: ATOM      5  N   UNL     1     -14.295   0.118  -5.724 -0.44 +0.66    -0.272 N  
DOCKED: ATOM      6  C   UNL     1     -16.387  -0.672  -4.745 -0.56 -0.39    +0.144 C  
DOCKED: ATOM      7  C   UNL     1     -15.629   0.359  -5.540 -0.39 -0.69    +0.279 C  
DOCKED: ATOM      8  O   UNL     1     -12.393  -1.065  -5.512 -0.34 +0.56    -0.248 OA 
DOCKED: ATOM      9  H   UNL     1     -13.777   0.798  -6.256 -0.28 -0.46    +0.175 HD 
DOCKED: ATOM     10  O   UNL     1     -16.159   1.371  -5.992 -0.94 +0.66    -0.267 OA 
DOCKED: BRANCH   6  11
DOCKED: ATOM     11  N   UNL     1     -17.743  -0.588  -4.522 -0.29 +0.76    -0.254 NA 
DOCKED: BRANCH  11  12
DOCKED: ATOM     12  C   UNL     1     -18.486  -1.357  -5.248 -0.41 -0.26    +0.084 C  
DOCKED: BRANCH  12  13
DOCKED: ATOM     13  C   UNL     1     -19.882  -0.935  -5.616 -0.40 -0.15    +0.048 C  
DOCKED: BRANCH  13  14
DOCKED: ATOM     14  C   UNL     1     -19.941   0.588  -5.719 -0.27 -0.03    +0.010 C  
DOCKED: BRANCH  14  15
DOCKED: ATOM     15  C   UNL     1     -20.309   1.077  -7.123 -0.25 -0.11    +0.036 C  
DOCKED: BRANCH  15  16
DOCKED: ATOM     16  C   UNL     1     -19.293   2.020  -7.718 -0.20 +0.15    -0.048 A  
DOCKED: ATOM     17  C   UNL     1     -19.156   2.132  -9.108 -0.23 -0.01    +0.004 A  
DOCKED: ATOM     18  C   UNL     1     -18.465   2.791  -6.890 -0.31 -0.01    +0.004 A  
DOCKED: ATOM     19  C   UNL     1     -18.210   2.996  -9.659 -0.25 -0.00    +0.000 A  
DOCKED: ATOM     20  C   UNL     1     -17.519   3.655  -7.444 -0.38 -0.00    +0.000 A  
DOCKED: ATOM     21  C   UNL     1     -17.390   3.757  -8.827 -0.32 -0.00    +0.000 A  
DOCKED: ENDBRANCH  15  16
DOCKED: ENDBRANCH  14  15
DOCKED: ENDBRANCH  13  14
DOCKED: ENDBRANCH  12  13
DOCKED: ENDBRANCH  11  12
DOCKED: ENDBRANCH   6  11
DOCKED: ENDBRANCH   1   2
DOCKED: END_RES 5BU B 11
DOCKED: TER
DOCKED: ENDMDL
________________________________________________________________________________


    FINAL DOCKED STATE:
    ________________________


Run:   16 / 20
Time taken for this run:   0.039s

DOCKED: MODEL        16
DOCKED: USER    Run = 16
DOCKED: USER
DOCKED: USER    Estimated Free Energy of Binding    =  -2.89 kcal/mol  [=(1)+(2)+(3)-(4)]
DOCKED: USER
DOCKED: USER    (1) Final Intermolecular Energy     =  +0.00 kcal/mol
DOCKED: USER        vdW + Hbond + desolv Energy     =  +0.00 kcal/mol
DOCKED: USER        Electrostatic Energy            =  +0.00 kcal/mol
DOCKED: USER        Moving Ligand-Fixed Receptor    =  +0.00 kcal/mol
DOCKED: USER        Moving Ligand-Moving Receptor   =  +0.00 kcal/mol
DOCKED: USER    (2) Final Total Internal Energy     =  -2.89 kcal/mol
DOCKED: USER    (3) Torsional Free Energy           =  +0.00 kcal/mol
DOCKED: USER    (4) Unbound System's Energy         =  +0.00 kcal/mol
DOCKED: USER
DOCKED: USER
DOCKED: BEGIN_RES 5BU B 11
DOCKED: REMARK SMILES Cn1cc(/N=C/CCCc2ccccc2)c(=O)[nH]c1=O
DOCKED: REMARK SMILES IDX 1 1 2 2 19 3 3 4 18 5 4 6 16 7 20 8 17 10 5 11 6 12 7 13
DOCKED: REMARK SMILES IDX 8 14 9 15 10 16 11 17 15 18 12 19 14 20 13 21
DOCKED: REMARK H PARENT 18 9
DOCKED: USER                              x       y       z     vdW  Elec       q    Type
DOCKED: USER                           _______ _______ _______ _____ _____    ______ ____
DOCKED: ROOT
DOCKED: ATOM      1  C   UNL     1     -13.682  -3.095  -4.050 +0.00 +0.00    +0.154 C  
DOCKED: ENDROOT
DOCKED: BRANCH   1   2
DOCKED: ATOM      2  N   UNL     1     -14.333  -1.896  -4.555 +0.00 +0.00    -0.301 N  
DOCKED: ATOM      3  C   UNL     1     -13.594  -0.967  -5.273 +1.99 -0.72    +0.328 C  
DOCKED: ATOM      4  C   UNL     1     -15.685  -1.733  -4.326 +2.66 -0.32    +0.124 C  
DOCKED: ATOM      5  N   UNL     1     -14.295   0.118  -5.725 -0.44 +0.66    -0.272 N  
DOCKED: ATOM      6  C   UNL     1     -16.387  -0.671  -4.745 -0.56 -0.39    +0.144 C  
DOCKED: ATOM      7  C   UNL     1     -15.629   0.359  -5.540 -0.39 -0.69    +0.279 C  
DOCKED: ATOM      8  O   UNL     1     -12.393  -1.066  -5.513 -0.34 +0.56    -0.248 OA 
DOCKED: ATOM      9  H   UNL     1     -13.777   0.798  -6.257 -0.28 -0.45    +0.175 HD 
DOCKED: ATOM     10  O   UNL     1     -16.160   1.371  -5.992 -0.94 +0.66    -0.267 OA 
DOCKED: BRANCH   6  11
DOCKED: ATOM     11  N   UNL     1     -17.743  -0.587  -4.521 -0.29 +0.76    -0.254 NA 
DOCKED: BRANCH  11  12
DOCKED: ATOM     12  C   UNL     1     -18.501  -1.117  -5.425 -0.37 -0.25    +0.084 C  
DOCKED: BRANCH  12  13
DOCKED: ATOM     13  C   UNL     1     -19.988  -0.895  -5.391 -0.40 -0.15    +0.048 C  
DOCKED: BRANCH  13  14
DOCKED: ATOM     14  C   UNL     1     -20.382   0.075  -6.503 -0.30 -0.03    +0.010 C  
DOCKED: BRANCH  14  15
DOCKED: ATOM     15  C   UNL     1     -20.139   1.540  -6.131 -0.20 -0.11    +0.036 C  
DOCKED: BRANCH  15  16
DOCKED: ATOM     16  C   UNL     1     -19.214   2.258  -7.083 -0.22 +0.14    -0.048 A  
DOCKED: ATOM     17  C   UNL     1     -19.310   2.044  -8.465 -0.21 -0.01    +0.004 A  
DOCKED: ATOM     18  C   UNL     1     -18.240   3.141  -6.599 -0.30 -0.01    +0.004 A  
DOCKED: ATOM     19  C   UNL     1     -18.448   2.699  -9.344 -0.25 -0.00    +0.000 A  
DOCKED: ATOM     20  C   UNL     1     -17.379   3.796  -7.480 -0.40 -0.00    +0.000 A  
DOCKED: ATOM     21  C   UNL     1     -17.481   3.575  -8.852 -0.31 -0.00    +0.000 A  
DOCKED: ENDBRANCH  15  16
DOCKED: ENDBRANCH  14  15
DOCKED: ENDBRANCH  13  14
DOCKED: ENDBRANCH  12  13
DOCKED: ENDBRANCH  11  12
DOCKED: ENDBRANCH   6  11
DOCKED: ENDBRANCH   1   2
DOCKED: END_RES 5BU B 11
DOCKED: TER
DOCKED: ENDMDL
________________________________________________________________________________


    FINAL DOCKED STATE:
    ________________________


Run:   17 / 20
Time taken for this run:   0.039s

DOCKED: MODEL        17
DOCKED: USER    Run = 17
DOCKED: USER
DOCKED: USER    Estimated Free Energy of Binding    =  -2.90 kcal/mol  [=(1)+(2)+(3)-(4)]
DOCKED: USER
DOCKED: USER    (1) Final Intermolecular Energy     =  +0.00 kcal/mol
DOCKED: USER        vdW + Hbond + desolv Energy     =  +0.00 kcal/mol
DOCKED: USER        Electrostatic Energy            =  +0.00 kcal/mol
DOCKED: USER        Moving Ligand-Fixed Receptor    =  +0.00 kcal/mol
DOCKED: USER        Moving Ligand-Moving Receptor   =  +0.00 kcal/mol
DOCKED: USER    (2) Final Total Internal Energy     =  -2.90 kcal/mol
DOCKED: USER    (3) Torsional Free Energy           =  +0.00 kcal/mol
DOCKED: USER    (4) Unbound System's Energy         =  +0.00 kcal/mol
DOCKED: USER
DOCKED: USER
DOCKED: BEGIN_RES 5BU B 11
DOCKED: REMARK SMILES Cn1cc(/N=C/CCCc2ccccc2)c(=O)[nH]c1=O
DOCKED: REMARK SMILES IDX 1 1 2 2 19 3 3 4 18 5 4 6 16 7 20 8 17 10 5 11 6 12 7 13
DOCKED: REMARK SMILES IDX 8 14 9 15 10 16 11 17 15 18 12 19 14 20 13 21
DOCKED: REMARK H PARENT 18 9
DOCKED: USER                              x       y       z     vdW  Elec       q    Type
DOCKED: USER                           _______ _______ _______ _____ _____    ______ ____
DOCKED: ROOT
DOCKED: ATOM      1  C   UNL     1     -13.682  -3.095  -4.050 +0.00 +0.00    +0.154 C  
DOCKED: ENDROOT
DOCKED: BRANCH   1   2
DOCKED: ATOM      2  N   UNL     1     -14.333  -1.896  -4.555 +0.00 +0.00    -0.301 N  
DOCKED: ATOM      3  C   UNL     1     -13.594  -0.967  -5.273 +1.99 -0.72    +0.328 C  
DOCKED: ATOM      4  C   UNL     1     -15.685  -1.733  -4.326 +2.66 -0.32    +0.124 C  
DOCKED: ATOM      5  N   UNL     1     -14.295   0.118  -5.724 -0.44 +0.66    -0.272 N  
DOCKED: ATOM      6  C   UNL     1     -16.387  -0.672  -4.745 -0.56 -0.39    +0.144 C  
DOCKED: ATOM      7  C   UNL     1     -15.629   0.359  -5.540 -0.39 -0.69    +0.279 C  
DOCKED: ATOM      8  O   UNL     1     -12.393  -1.065  -5.512 -0.34 +0.56    -0.248 OA 
DOCKED: ATOM      9  H   UNL     1     -13.777   0.798  -6.256 -0.28 -0.46    +0.175 HD 
DOCKED: ATOM     10  O   UNL     1     -16.159   1.371  -5.992 -0.94 +0.66    -0.267 OA 
DOCKED: BRANCH   6  11
DOCKED: ATOM     11  N   UNL     1     -17.743  -0.588  -4.522 -0.29 +0.76    -0.254 NA 
DOCKED: BRANCH  11  12
DOCKED: ATOM     12  C   UNL     1     -18.501  -1.102  -5.435 -0.37 -0.25    +0.084 C  
DOCKED: BRANCH  12  13
DOCKED: ATOM     13  C   UNL     1     -19.914  -0.617  -5.608 -0.40 -0.15    +0.048 C  
DOCKED: BRANCH  13  14
DOCKED: ATOM     14  C   UNL     1     -19.926   0.586  -6.549 -0.27 -0.03    +0.010 C  
DOCKED: BRANCH  14  15
DOCKED: ATOM     15  C   UNL     1     -21.047   0.518  -7.590 -0.31 -0.12    +0.036 C  
DOCKED: BRANCH  15  16
DOCKED: ATOM     16  C   UNL     1     -20.705   1.203  -8.891 -0.26 +0.16    -0.048 A  
DOCKED: ATOM     17  C   UNL     1     -21.508   1.019 -10.024 -0.40 -0.02    +0.004 A  
DOCKED: ATOM     18  C   UNL     1     -19.573   2.025  -8.987 -0.24 -0.01    +0.004 A  
DOCKED: ATOM     19  C   UNL     1     -21.186   1.643 -11.229 -0.44 -0.00    +0.000 A  
DOCKED: ATOM     20  C   UNL     1     -19.253   2.648 -10.194 -0.28 -0.00    +0.000 A  
DOCKED: ATOM     21  C   UNL     1     -20.057   2.457 -11.315 -0.37 -0.00    +0.000 A  
DOCKED: ENDBRANCH  15  16
DOCKED: ENDBRANCH  14  15
DOCKED: ENDBRANCH  13  14
DOCKED: ENDBRANCH  12  13
DOCKED: ENDBRANCH  11  12
DOCKED: ENDBRANCH   6  11
DOCKED: ENDBRANCH   1   2
DOCKED: END_RES 5BU B 11
DOCKED: TER
DOCKED: ENDMDL
________________________________________________________________________________


    FINAL DOCKED STATE:
    ________________________


Run:   18 / 20
Time taken for this run:   0.039s

DOCKED: MODEL        18
DOCKED: USER    Run = 18
DOCKED: USER
DOCKED: USER    Estimated Free Energy of Binding    =  -2.94 kcal/mol  [=(1)+(2)+(3)-(4)]
DOCKED: USER
DOCKED: USER    (1) Final Intermolecular Energy     =  +0.00 kcal/mol
DOCKED: USER        vdW + Hbond + desolv Energy     =  +0.00 kcal/mol
DOCKED: USER        Electrostatic Energy            =  +0.00 kcal/mol
DOCKED: USER        Moving Ligand-Fixed Receptor    =  +0.00 kcal/mol
DOCKED: USER        Moving Ligand-Moving Receptor   =  +0.00 kcal/mol
DOCKED: USER    (2) Final Total Internal Energy     =  -2.94 kcal/mol
DOCKED: USER    (3) Torsional Free Energy           =  +0.00 kcal/mol
DOCKED: USER    (4) Unbound System's Energy         =  +0.00 kcal/mol
DOCKED: USER
DOCKED: USER
DOCKED: BEGIN_RES 5BU B 11
DOCKED: REMARK SMILES Cn1cc(/N=C/CCCc2ccccc2)c(=O)[nH]c1=O
DOCKED: REMARK SMILES IDX 1 1 2 2 19 3 3 4 18 5 4 6 16 7 20 8 17 10 5 11 6 12 7 13
DOCKED: REMARK SMILES IDX 8 14 9 15 10 16 11 17 15 18 12 19 14 20 13 21
DOCKED: REMARK H PARENT 18 9
DOCKED: USER                              x       y       z     vdW  Elec       q    Type
DOCKED: USER                           _______ _______ _______ _____ _____    ______ ____
DOCKED: ROOT
DOCKED: ATOM      1  C   UNL     1     -13.682  -3.095  -4.050 +0.00 +0.00    +0.154 C  
DOCKED: ENDROOT
DOCKED: BRANCH   1   2
DOCKED: ATOM      2  N   UNL     1     -14.333  -1.896  -4.555 +0.00 +0.00    -0.301 N  
DOCKED: ATOM      3  C   UNL     1     -13.594  -0.967  -5.273 +1.99 -0.72    +0.328 C  
DOCKED: ATOM      4  C   UNL     1     -15.685  -1.733  -4.326 +2.66 -0.32    +0.124 C  
DOCKED: ATOM      5  N   UNL     1     -14.295   0.118  -5.724 -0.44 +0.66    -0.272 N  
DOCKED: ATOM      6  C   UNL     1     -16.387  -0.672  -4.745 -0.56 -0.39    +0.144 C  
DOCKED: ATOM      7  C   UNL     1     -15.629   0.359  -5.540 -0.39 -0.69    +0.279 C  
DOCKED: ATOM      8  O   UNL     1     -12.393  -1.065  -5.512 -0.34 +0.56    -0.248 OA 
DOCKED: ATOM      9  H   UNL     1     -13.777   0.798  -6.256 -0.28 -0.46    +0.175 HD 
DOCKED: ATOM     10  O   UNL     1     -16.159   1.371  -5.992 -0.94 +0.66    -0.267 OA 
DOCKED: BRANCH   6  11
DOCKED: ATOM     11  N   UNL     1     -17.743  -0.588  -4.522 -0.29 +0.76    -0.254 NA 
DOCKED: BRANCH  11  12
DOCKED: ATOM     12  C   UNL     1     -18.486  -1.358  -5.248 -0.41 -0.26    +0.084 C  
DOCKED: BRANCH  12  13
DOCKED: ATOM     13  C   UNL     1     -19.915  -0.983  -5.533 -0.40 -0.15    +0.048 C  
DOCKED: BRANCH  13  14
DOCKED: ATOM     14  C   UNL     1     -19.948   0.305  -6.353 -0.30 -0.03    +0.010 C  
DOCKED: BRANCH  14  15
DOCKED: ATOM     15  C   UNL     1     -21.166   0.395  -7.275 -0.29 -0.12    +0.036 C  
DOCKED: BRANCH  15  16
DOCKED: ATOM     16  C   UNL     1     -20.856   0.986  -8.628 -0.26 +0.16    -0.048 A  
DOCKED: ATOM     17  C   UNL     1     -19.748   1.827  -8.800 -0.20 -0.01    +0.004 A  
DOCKED: ATOM     18  C   UNL     1     -21.677   0.712  -9.731 -0.43 -0.02    +0.004 A  
DOCKED: ATOM     19  C   UNL     1     -19.467   2.382 -10.048 -0.30 -0.00    +0.000 A  
DOCKED: ATOM     20  C   UNL     1     -21.394   1.268 -10.979 -0.37 -0.00    +0.000 A  
DOCKED: ATOM     21  C   UNL     1     -20.291   2.104 -11.138 -0.40 -0.00    +0.000 A  
DOCKED: ENDBRANCH  15  16
DOCKED: ENDBRANCH  14  15
DOCKED: ENDBRANCH  13  14
DOCKED: ENDBRANCH  12  13
DOCKED: ENDBRANCH  11  12
DOCKED: ENDBRANCH   6  11
DOCKED: ENDBRANCH   1   2
DOCKED: END_RES 5BU B 11
DOCKED: TER
DOCKED: ENDMDL
________________________________________________________________________________


    FINAL DOCKED STATE:
    ________________________


Run:   19 / 20
Time taken for this run:   0.039s

DOCKED: MODEL        19
DOCKED: USER    Run = 19
DOCKED: USER
DOCKED: USER    Estimated Free Energy of Binding    =  -2.88 kcal/mol  [=(1)+(2)+(3)-(4)]
DOCKED: USER
DOCKED: USER    (1) Final Intermolecular Energy     =  +0.00 kcal/mol
DOCKED: USER        vdW + Hbond + desolv Energy     =  +0.00 kcal/mol
DOCKED: USER        Electrostatic Energy            =  +0.00 kcal/mol
DOCKED: USER        Moving Ligand-Fixed Receptor    =  +0.00 kcal/mol
DOCKED: USER        Moving Ligand-Moving Receptor   =  +0.00 kcal/mol
DOCKED: USER    (2) Final Total Internal Energy     =  -2.88 kcal/mol
DOCKED: USER    (3) Torsional Free Energy           =  +0.00 kcal/mol
DOCKED: USER    (4) Unbound System's Energy         =  +0.00 kcal/mol
DOCKED: USER
DOCKED: USER
DOCKED: BEGIN_RES 5BU B 11
DOCKED: REMARK SMILES Cn1cc(/N=C/CCCc2ccccc2)c(=O)[nH]c1=O
DOCKED: REMARK SMILES IDX 1 1 2 2 19 3 3 4 18 5 4 6 16 7 20 8 17 10 5 11 6 12 7 13
DOCKED: REMARK SMILES IDX 8 14 9 15 10 16 11 17 15 18 12 19 14 20 13 21
DOCKED: REMARK H PARENT 18 9
DOCKED: USER                              x       y       z     vdW  Elec       q    Type
DOCKED: USER                           _______ _______ _______ _____ _____    ______ ____
DOCKED: ROOT
DOCKED: ATOM      1  C   UNL     1     -13.682  -3.095  -4.050 +0.00 +0.00    +0.154 C  
DOCKED: ENDROOT
DOCKED: BRANCH   1   2
DOCKED: ATOM      2  N   UNL     1     -14.333  -1.896  -4.555 +0.00 +0.00    -0.301 N  
DOCKED: ATOM      3  C   UNL     1     -13.591  -0.959  -5.259 +1.98 -0.72    +0.328 C  
DOCKED: ATOM      4  C   UNL     1     -15.688  -1.740  -4.340 +2.70 -0.32    +0.124 C  
DOCKED: ATOM      5  N   UNL     1     -14.292   0.125  -5.712 -0.44 +0.66    -0.272 N  
DOCKED: ATOM      6  C   UNL     1     -16.391  -0.680  -4.760 -0.56 -0.39    +0.144 C  
DOCKED: ATOM      7  C   UNL     1     -15.628   0.358  -5.541 -0.39 -0.69    +0.279 C  
DOCKED: ATOM      8  O   UNL     1     -12.386  -1.051  -5.486 -0.35 +0.55    -0.248 OA 
DOCKED: ATOM      9  H   UNL     1     -13.771   0.811  -6.234 -0.29 -0.46    +0.175 HD 
DOCKED: ATOM     10  O   UNL     1     -16.159   1.371  -5.992 -0.94 +0.66    -0.267 OA 
DOCKED: BRANCH   6  11
DOCKED: ATOM     11  N   UNL     1     -17.749  -0.603  -4.551 -0.29 +0.76    -0.254 NA 
DOCKED: BRANCH  11  12
DOCKED: ATOM     12  C   UNL     1     -18.493  -0.731  -5.602 -0.37 -0.24    +0.084 C  
DOCKED: BRANCH  12  13
DOCKED: ATOM     13  C   UNL     1     -19.938  -0.315  -5.562 -0.36 -0.15    +0.048 C  
DOCKED: BRANCH  13  14
DOCKED: ATOM     14  C   UNL     1     -20.154   0.858  -6.516 -0.27 -0.03    +0.010 C  
DOCKED: BRANCH  14  15
DOCKED: ATOM     15  C   UNL     1     -19.200   2.026  -6.252 -0.26 -0.10    +0.036 C  
DOCKED: BRANCH  15  16
DOCKED: ATOM     16  C   UNL     1     -18.572   2.587  -7.504 -0.26 +0.14    -0.048 A  
DOCKED: ATOM     17  C   UNL     1     -19.015   2.175  -8.768 -0.21 -0.01    +0.004 A  
DOCKED: ATOM     18  C   UNL     1     -17.530   3.522  -7.421 -0.40 -0.01    +0.004 A  
DOCKED: ATOM     19  C   UNL     1     -18.427   2.685  -9.925 -0.27 -0.00    +0.000 A  
DOCKED: ATOM     20  C   UNL     1     -16.944   4.031  -8.580 -0.37 -0.00    +0.000 A  
DOCKED: ATOM     21  C   UNL     1     -17.390   3.613  -9.832 -0.25 -0.00    +0.000 A  
DOCKED: ENDBRANCH  15  16
DOCKED: ENDBRANCH  14  15
DOCKED: ENDBRANCH  13  14
DOCKED: ENDBRANCH  12  13
DOCKED: ENDBRANCH  11  12
DOCKED: ENDBRANCH   6  11
DOCKED: ENDBRANCH   1   2
DOCKED: END_RES 5BU B 11
DOCKED: TER
DOCKED: ENDMDL
________________________________________________________________________________


    FINAL DOCKED STATE:
    ________________________


Run:   20 / 20
Time taken for this run:   0.039s

DOCKED: MODEL        20
DOCKED: USER    Run = 20
DOCKED: USER
DOCKED: USER    Estimated Free Energy of Binding    =  -2.94 kcal/mol  [=(1)+(2)+(3)-(4)]
DOCKED: USER
DOCKED: USER    (1) Final Intermolecular Energy     =  +0.00 kcal/mol
DOCKED: USER        vdW + Hbond + desolv Energy     =  +0.00 kcal/mol
DOCKED: USER        Electrostatic Energy            =  +0.00 kcal/mol
DOCKED: USER        Moving Ligand-Fixed Receptor    =  +0.00 kcal/mol
DOCKED: USER        Moving Ligand-Moving Receptor   =  +0.00 kcal/mol
DOCKED: USER    (2) Final Total Internal Energy     =  -2.94 kcal/mol
DOCKED: USER    (3) Torsional Free Energy           =  +0.00 kcal/mol
DOCKED: USER    (4) Unbound System's Energy         =  +0.00 kcal/mol
DOCKED: USER
DOCKED: USER
DOCKED: BEGIN_RES 5BU B 11
DOCKED: REMARK SMILES Cn1cc(/N=C/CCCc2ccccc2)c(=O)[nH]c1=O
DOCKED: REMARK SMILES IDX 1 1 2 2 19 3 3 4 18 5 4 6 16 7 20 8 17 10 5 11 6 12 7 13
DOCKED: REMARK SMILES IDX 8 14 9 15 10 16 11 17 15 18 12 19 14 20 13 21
DOCKED: REMARK H PARENT 18 9
DOCKED: USER                              x       y       z     vdW  Elec       q    Type
DOCKED: USER                           _______ _______ _______ _____ _____    ______ ____
DOCKED: ROOT
DOCKED: ATOM      1  C   UNL     1     -13.682  -3.095  -4.050 +0.00 +0.00    +0.154 C  
DOCKED: ENDROOT
DOCKED: BRANCH   1   2
DOCKED: ATOM      2  N   UNL     1     -14.333  -1.896  -4.555 +0.00 +0.00    -0.301 N  
DOCKED: ATOM      3  C   UNL     1     -13.594  -0.967  -5.273 +1.99 -0.72    +0.328 C  
DOCKED: ATOM      4  C   UNL     1     -15.685  -1.733  -4.326 +2.66 -0.32    +0.124 C  
DOCKED: ATOM      5  N   UNL     1     -14.295   0.118  -5.724 -0.44 +0.66    -0.272 N  
DOCKED: ATOM      6  C   UNL     1     -16.387  -0.672  -4.745 -0.56 -0.39    +0.144 C  
DOCKED: ATOM      7  C   UNL     1     -15.629   0.359  -5.540 -0.39 -0.69    +0.279 C  
DOCKED: ATOM      8  O   UNL     1     -12.393  -1.065  -5.512 -0.34 +0.56    -0.248 OA 
DOCKED: ATOM      9  H   UNL     1     -13.777   0.798  -6.256 -0.28 -0.46    +0.175 HD 
DOCKED: ATOM     10  O   UNL     1     -16.159   1.371  -5.992 -0.94 +0.66    -0.267 OA 
DOCKED: BRANCH   6  11
DOCKED: ATOM     11  N   UNL     1     -17.743  -0.588  -4.522 -0.29 +0.76    -0.254 NA 
DOCKED: BRANCH  11  12
DOCKED: ATOM     12  C   UNL     1     -18.486  -1.358  -5.248 -0.41 -0.26    +0.084 C  
DOCKED: BRANCH  12  13
DOCKED: ATOM     13  C   UNL     1     -19.909  -0.973  -5.550 -0.40 -0.15    +0.048 C  
DOCKED: BRANCH  13  14
DOCKED: ATOM     14  C   UNL     1     -19.924   0.343  -6.326 -0.30 -0.03    +0.010 C  
DOCKED: BRANCH  14  15
DOCKED: ATOM     15  C   UNL     1     -21.163   0.499  -7.212 -0.29 -0.12    +0.036 C  
DOCKED: BRANCH  15  16
DOCKED: ATOM     16  C   UNL     1     -20.859   1.054  -8.581 -0.26 +0.16    -0.048 A  
DOCKED: ATOM     17  C   UNL     1     -21.697   0.766  -9.667 -0.42 -0.02    +0.004 A  
DOCKED: ATOM     18  C   UNL     1     -19.730   1.858  -8.790 -0.20 -0.01    +0.004 A  
DOCKED: ATOM     19  C   UNL     1     -21.411   1.271 -10.936 -0.37 -0.00    +0.000 A  
DOCKED: ATOM     20  C   UNL     1     -19.446   2.362 -10.059 -0.30 -0.00    +0.000 A  
DOCKED: ATOM     21  C   UNL     1     -20.284   2.068 -11.133 -0.41 -0.00    +0.000 A  
DOCKED: ENDBRANCH  15  16
DOCKED: ENDBRANCH  14  15
DOCKED: ENDBRANCH  13  14
DOCKED: ENDBRANCH  12  13
DOCKED: ENDBRANCH  11  12
DOCKED: ENDBRANCH   6  11
DOCKED: ENDBRANCH   1   2
DOCKED: END_RES 5BU B 11
DOCKED: TER
DOCKED: ENDMDL
________________________________________________________________________________


    CLUSTERING HISTOGRAM
    ____________________


________________________________________________________________________________
     |           |     |           |     |
Clus | Lowest    | Run | Mean      | Num | Histogram
-ter | Binding   |     | Binding   | in  |
Rank | Energy    |     | Energy    | Clus|    5    10   15   20   25   30   35
_____|___________|_____|___________|_____|____:____|____:____|____:____|____:___
   1 |     -2.94 |  20 |     -2.92 |  20 |####################
_____|___________|_____|___________|_____|______________________________________


    RMSD TABLE
    __________


_______________________________________________________________________
     |      |      |           |         |                 |
Rank | Sub- | Run  | Binding   | Cluster | Reference       | Grep
     | Rank |      | Energy    | RMSD    | RMSD            | Pattern
_____|______|______|___________|_________|_________________|___________
   1      1     20       -2.94      0.00      2.07           RANKING
   1      2     18       -2.94      0.04      2.08           RANKING
   1      3      4       -2.94      0.02      2.07           RANKING
   1      4      3       -2.94      0.02      2.07           RANKING
   1      5     13       -2.93      0.05      2.06           RANKING
   1      6     11       -2.93      0.06      2.06           RANKING
   1      7      7       -2.93      0.04      2.06           RANKING
   1      8      5       -2.92      0.23      2.15           RANKING
   1      9     15       -2.92      1.18      2.81           RANKING
   1     10     10       -2.92      0.18      2.12           RANKING
   1     11     14       -2.92      1.17      2.80           RANKING
   1     12      6       -2.92      1.17      2.80           RANKING
   1     13      8       -2.92      0.24      2.15           RANKING
   1     14     12       -2.92      1.17      2.80           RANKING
   1     15      1       -2.91      1.17      2.81           RANKING
   1     16      9       -2.91      1.33      2.96           RANKING
   1     17      2       -2.91      1.17      2.79           RANKING
   1     18     17       -2.90      0.28      2.22           RANKING
   1     19     16       -2.89      1.27      2.79           RANKING
   1     20     19       -2.88      1.32      3.06           RANKING

Run time 0.803 sec
Idle time 0.431 sec
