ATOM      1 O3'  GDP A   1     -12.007  13.995  14.026  1.00  0.00    -0.305 OA
ATOM      2 C3'  GDP A   1     -10.788  13.845  14.746  1.00  0.00     0.195 C 
ATOM      3 C4'  GDP A   1     -10.738  12.595  15.603  1.00  0.00     0.181 C 
ATOM      4 C2'  GDP A   1     -10.632  14.968  15.744  1.00  0.00     0.199 C 
ATOM      5 O4'  GDP A   1      -9.850  12.944  16.671  1.00  0.00    -0.342 OA
ATOM      6 C5'  GDP A   1     -10.188  11.407  14.827  1.00  0.00     0.207 C 
ATOM      7 O2'  GDP A   1     -11.886  15.208  16.388  1.00  0.00    -0.381 OA
ATOM      8 C1'  GDP A   1      -9.688  14.366  16.753  1.00  0.00     0.256 C 
ATOM      9 O5'  GDP A   1      -8.825  11.671  14.507  1.00  0.00    -0.311 OA
ATOM     10 HO2' GDP A   1     -11.763  15.184  17.370  1.00  0.00     0.214 HD
ATOM     11  N9  GDP A   1      -8.313  14.755  16.356  1.00  0.00    -0.281 N 
ATOM     12  PA  GDP A   1      -7.853  10.515  13.948  1.00  0.00     0.275 P 
ATOM     13  C8  GDP A   1      -7.339  13.935  15.912  1.00  0.00     0.207 A 
ATOM     14  C4  GDP A   1      -7.838  16.000  16.363  1.00  0.00     0.173 A 
ATOM     15 O1A  GDP A   1      -8.636   9.266  13.611  1.00  0.00    -0.272 OA
ATOM     16 O2A  GDP A   1      -7.087  11.023  12.742  1.00  0.00    -0.746 OA
ATOM     17 O3A  GDP A   1      -6.878  10.325  15.228  1.00  0.00    -0.283 OA
ATOM     18  N7  GDP A   1      -6.199  14.624  15.640  1.00  0.00    -0.226 NA
ATOM     19  C5  GDP A   1      -6.451  15.924  15.894  1.00  0.00     0.175 A 
ATOM     20  N3  GDP A   1      -8.346  17.208  16.689  1.00  0.00    -0.192 NA
ATOM     21  PB  GDP A   1      -5.768   9.158  15.384  1.00  0.00     0.070 P 
ATOM     22  C6  GDP A   1      -5.696  17.195  15.812  1.00  0.00     0.284 A 
ATOM     23  C2  GDP A   1      -7.592  18.326  16.596  1.00  0.00     0.205 A 
ATOM     24 O1B  GDP A   1      -4.575   9.455  14.497  1.00  0.00    -0.322 OA
ATOM     25 O2B  GDP A   1      -5.294   9.114  16.822  1.00  0.00    -0.781 OA
ATOM     26 O3B  GDP A   1      -6.379   7.825  14.997  1.00  0.00    -0.781 OA
ATOM     27  N1  GDP A   1      -6.318  18.319  16.173  1.00  0.00    -0.287 N 
ATOM     28  O6  GDP A   1      -4.505  17.221  15.430  1.00  0.00    -0.264 OA
ATOM     29  N2  GDP A   1      -8.145  19.510  16.956  1.00  0.00    -0.364 N 
ATOM     30 HN1  GDP A   1      -5.804  19.210  16.126  1.00  0.00     0.175 HD
ATOM     31 HN21 GDP A   1      -7.592  20.377  16.895  1.00  0.00     0.161 HD
ATOM     32 HN22 GDP A   1      -9.118  19.543  17.291  1.00  0.00     0.161 HD
ATOM     33 O3'  G   A   2     -13.690  19.502  12.078  1.00  0.00    -0.309 OA
ATOM     34 C3'  G   A   2     -12.527  19.110  12.779  1.00  0.00     0.192 C 
ATOM     35 C4'  G   A   2     -12.836  18.191  13.950  1.00  0.00     0.179 C 
ATOM     36 C2'  G   A   2     -11.842  20.272  13.470  1.00  0.00     0.196 C 
ATOM     37 C5'  G   A   2     -13.089  16.744  13.616  1.00  0.00     0.204 C 
ATOM     38 O4'  G   A   2     -11.668  18.327  14.808  1.00  0.00    -0.347 OA
ATOM     39 C1'  G   A   2     -11.000  19.536  14.510  1.00  0.00     0.253 C 
ATOM     40 O2'  G   A   2     -12.806  21.046  14.166  1.00  0.00    -0.385 OA
ATOM     41 O5'  G   A   2     -11.988  16.173  12.933  1.00  0.00    -0.316 OA
ATOM     42  N9  G   A   2      -9.656  19.232  13.983  1.00  0.00    -0.285 N 
ATOM     43 HO2' G   A   2     -12.673  20.939  15.141  1.00  0.00     0.211 HD
ATOM     44  P   G   A   2     -11.985  14.626  12.567  1.00  0.00     0.267 P 
ATOM     45  C8  G   A   2      -9.134  18.016  13.618  1.00  0.00     0.204 A 
ATOM     46  C4  G   A   2      -8.665  20.152  13.750  1.00  0.00     0.171 A 
ATOM     47 OP1  G   A   2     -13.211  14.334  11.783  1.00  0.00    -0.276 OA
ATOM     48 OP2  G   A   2     -10.628  14.259  12.053  1.00  0.00    -0.755 OA
ATOM     49  N7  G   A   2      -7.904  18.085  13.183  1.00  0.00    -0.229 NA
ATOM     50  C5  G   A   2      -7.601  19.431  13.263  1.00  0.00     0.173 A 
ATOM     51  N3  G   A   2      -8.756  21.476  13.968  1.00  0.00    -0.195 NA
ATOM     52  C6  G   A   2      -6.408  20.114  12.932  1.00  0.00     0.280 A 
ATOM     53  C2  G   A   2      -7.641  22.113  13.654  1.00  0.00     0.202 A 
ATOM     54  N1  G   A   2      -6.510  21.491  13.165  1.00  0.00    -0.291 N 
ATOM     55  O6  G   A   2      -5.373  19.608  12.483  1.00  0.00    -0.267 OA
ATOM     56  N2  G   A   2      -7.595  23.450  13.837  1.00  0.00    -0.368 N 
ATOM     57  H1  G   A   2      -5.689  22.077  12.958  1.00  0.00     0.173 HD
ATOM     58 H21  G   A   2      -6.740  23.973  13.601  1.00  0.00     0.159 HD
ATOM     59 H22  G   A   2      -8.415  23.947  14.212  1.00  0.00     0.159 HD
ATOM     60 O3'  A   A   3     -13.119  24.568   8.818  1.00  0.00    -0.309 OA
ATOM     61 C3'  A   A   3     -12.137  23.932   9.629  1.00  0.00     0.192 C 
ATOM     62 C4'  A   A   3     -12.611  23.647  11.040  1.00  0.00     0.179 C 
ATOM     63 C2'  A   A   3     -10.870  24.744   9.869  1.00  0.00     0.196 C 
ATOM     64 C5'  A   A   3     -13.467  22.413  11.195  1.00  0.00     0.204 C 
ATOM     65 O4'  A   A   3     -11.377  23.473  11.791  1.00  0.00    -0.347 OA
ATOM     66 C1'  A   A   3     -10.296  24.020  11.071  1.00  0.00     0.253 C 
ATOM     67 O2'  A   A   3     -11.183  26.063  10.288  1.00  0.00    -0.386 OA
ATOM     68 O5'  A   A   3     -12.903  21.303  10.504  1.00  0.00    -0.316 OA
ATOM     69  N9  A   A   3      -9.413  22.923  10.653  1.00  0.00    -0.285 N 
ATOM     70 HO2' A   A   3     -11.192  26.102  11.277  1.00  0.00     0.211 HD
ATOM     71  P   A   A   3     -13.623  19.881  10.521  1.00  0.00     0.267 P 
ATOM     72  C8  A   A   3      -9.717  21.584  10.528  1.00  0.00     0.204 A 
ATOM     73  C4  A   A   3      -8.109  23.065  10.280  1.00  0.00     0.167 A 
ATOM     74 OP1  A   A   3     -15.022  20.092  10.062  1.00  0.00    -0.276 OA
ATOM     75 OP2  A   A   3     -12.742  18.869   9.868  1.00  0.00    -0.755 OA
ATOM     76  N7  A   A   3      -8.701  20.866  10.129  1.00  0.00    -0.231 NA
ATOM     77  C5  A   A   3      -7.671  21.788   9.966  1.00  0.00     0.150 A 
ATOM     78  N3  A   A   3      -7.410  24.209  10.238  1.00  0.00    -0.216 NA
ATOM     79  C6  A   A   3      -6.326  21.673   9.549  1.00  0.00     0.155 A 
ATOM     80  C2  A   A   3      -6.158  23.979   9.835  1.00  0.00     0.226 A 
ATOM     81  N1  A   A   3      -5.579  22.812   9.492  1.00  0.00    -0.217 NA
ATOM     82  N6  A   A   3      -5.747  20.520   9.190  1.00  0.00    -0.382 N 
ATOM     83 H61  A   A   3      -6.284  19.642   9.222  1.00  0.00     0.158 HD
ATOM     84 H62  A   A   3      -4.764  20.511   8.882  1.00  0.00     0.158 HD
ATOM     85 O3'  U   A   4      -9.975  26.207   3.872  1.00  0.00    -0.309 OA
ATOM     86 C3'  U   A   4      -9.632  25.328   4.920  1.00  0.00     0.192 C 
ATOM     87 C4'  U   A   4      -9.929  25.922   6.283  1.00  0.00     0.179 C 
ATOM     88 C2'  U   A   4      -8.142  25.022   5.012  1.00  0.00     0.196 C 
ATOM     89 C5'  U   A   4     -11.366  25.833   6.716  1.00  0.00     0.204 C 
ATOM     90 O4'  U   A   4      -9.081  25.163   7.186  1.00  0.00    -0.346 OA
ATOM     91 C1'  U   A   4      -8.039  24.536   6.459  1.00  0.00     0.255 C 
ATOM     92 O2'  U   A   4      -7.380  26.210   4.873  1.00  0.00    -0.386 OA
ATOM     93 O5'  U   A   4     -11.856  24.504   6.631  1.00  0.00    -0.316 OA
ATOM     94  N1  U   A   4      -8.241  23.068   6.516  1.00  0.00    -0.271 N 
ATOM     95 HO2' U   A   4      -7.153  26.563   5.770  1.00  0.00     0.211 HD
ATOM     96  P   U   A   4     -13.272  24.158   7.255  1.00  0.00     0.267 P 
ATOM     97  C2  U   A   4      -7.168  22.282   6.137  1.00  0.00     0.330 A 
ATOM     98  C6  U   A   4      -9.442  22.497   6.869  1.00  0.00     0.099 A 
ATOM     99 OP1  U   A   4     -14.205  25.155   6.643  1.00  0.00    -0.276 OA
ATOM    100 OP2  U   A   4     -13.489  22.694   7.149  1.00  0.00    -0.756 OA
ATOM    101  O2  U   A   4      -6.094  22.745   5.798  1.00  0.00    -0.248 OA
ATOM    102  N3  U   A   4      -7.395  20.935   6.162  1.00  0.00    -0.274 N 
ATOM    103  C5  U   A   4      -9.644  21.159   6.891  1.00  0.00     0.090 A 
ATOM    104  H3  U   A   4      -6.608  20.333   5.882  1.00  0.00     0.175 HD
ATOM    105  C4  U   A   4      -8.565  20.289   6.522  1.00  0.00     0.253 A 
ATOM    106  O4  U   A   4      -8.585  19.057   6.500  1.00  0.00    -0.269 OA
ATOM    107 O3'  G   A   5      -7.198  23.986  -1.074  1.00  0.00    -0.309 OA
ATOM    108 C3'  G   A   5      -7.446  23.426   0.210  1.00  0.00     0.192 C 
ATOM    109 C4'  G   A   5      -7.062  24.372   1.340  1.00  0.00     0.179 C 
ATOM    110 C2'  G   A   5      -6.617  22.186   0.519  1.00  0.00     0.196 C 
ATOM    111 C5'  G   A   5      -8.088  25.422   1.640  1.00  0.00     0.204 C 
ATOM    112 O4'  G   A   5      -6.909  23.489   2.488  1.00  0.00    -0.347 OA
ATOM    113 C1'  G   A   5      -6.669  22.163   2.052  1.00  0.00     0.253 C 
ATOM    114 O2'  G   A   5      -5.271  22.385   0.126  1.00  0.00    -0.385 OA
ATOM    115 O5'  G   A   5      -9.342  24.795   1.891  1.00  0.00    -0.316 OA
ATOM    116  N9  G   A   5      -7.753  21.302   2.548  1.00  0.00    -0.285 N 
ATOM    117 HO2' G   A   5      -4.701  22.469   0.931  1.00  0.00     0.211 HD
ATOM    118  P   G   A   5     -10.556  25.620   2.499  1.00  0.00     0.267 P 
ATOM    119  C8  G   A   5      -8.896  21.731   3.177  1.00  0.00     0.204 A 
ATOM    120  C4  G   A   5      -7.837  19.916   2.487  1.00  0.00     0.171 A 
ATOM    121 OP1  G   A   5     -10.728  26.747   1.541  1.00  0.00    -0.276 OA
ATOM    122 OP2  G   A   5     -11.669  24.701   2.846  1.00  0.00    -0.755 OA
ATOM    123  N7  G   A   5      -9.689  20.752   3.525  1.00  0.00    -0.229 NA
ATOM    124  C5  G   A   5      -9.040  19.599   3.097  1.00  0.00     0.173 A 
ATOM    125  N3  G   A   5      -6.927  19.063   1.949  1.00  0.00    -0.195 NA
ATOM    126  C6  G   A   5      -9.440  18.238   3.207  1.00  0.00     0.280 A 
ATOM    127  C2  G   A   5      -7.329  17.788   2.055  1.00  0.00     0.202 A 
ATOM    128  N1  G   A   5      -8.494  17.380   2.646  1.00  0.00    -0.291 N 
ATOM    129  O6  G   A   5     -10.482  17.766   3.700  1.00  0.00    -0.267 OA
ATOM    130  N2  G   A   5      -6.582  16.779   1.587  1.00  0.00    -0.368 N 
ATOM    131  H1  G   A   5      -8.686  16.369   2.679  1.00  0.00     0.173 HD
ATOM    132 H21  G   A   5      -6.912  15.808   1.680  1.00  0.00     0.159 HD
ATOM    133 H22  G   A   5      -5.678  16.975   1.134  1.00  0.00     0.159 HD
ATOM    134 O3'  U   A   6      -7.441  19.657  -5.266  1.00  0.00    -0.309 OA
ATOM    135 C3'  U   A   6      -7.628  19.508  -3.866  1.00  0.00     0.192 C 
ATOM    136 C4'  U   A   6      -6.528  20.157  -3.057  1.00  0.00     0.179 C 
ATOM    137 C2'  U   A   6      -7.581  18.067  -3.371  1.00  0.00     0.196 C 
ATOM    138 C5'  U   A   6      -6.595  21.657  -2.932  1.00  0.00     0.204 C 
ATOM    139 O4'  U   A   6      -6.649  19.526  -1.751  1.00  0.00    -0.346 OA
ATOM    140 C1'  U   A   6      -7.323  18.292  -1.881  1.00  0.00     0.255 C 
ATOM    141 O2'  U   A   6      -6.452  17.384  -3.906  1.00  0.00    -0.386 OA
ATOM    142 O5'  U   A   6      -7.903  22.102  -2.599  1.00  0.00    -0.316 OA
ATOM    143  N1  U   A   6      -8.596  18.357  -1.136  1.00  0.00    -0.271 N 
ATOM    144 HO2' U   A   6      -5.890  17.044  -3.165  1.00  0.00     0.211 HD
ATOM    145  P   U   A   6      -8.178  23.656  -2.312  1.00  0.00     0.267 P 
ATOM    146  C2  U   A   6      -9.180  17.147  -0.869  1.00  0.00     0.330 A 
ATOM    147  C6  U   A   6      -9.190  19.541  -0.780  1.00  0.00     0.099 A 
ATOM    148 OP1  U   A   6      -7.687  24.483  -3.442  1.00  0.00    -0.276 OA
ATOM    149 OP2  U   A   6      -9.588  23.738  -1.878  1.00  0.00    -0.756 OA
ATOM    150  O2  U   A   6      -8.675  16.078  -1.189  1.00  0.00    -0.248 OA
ATOM    151  N3  U   A   6     -10.371  17.232  -0.206  1.00  0.00    -0.274 N 
ATOM    152  C5  U   A   6     -10.353  19.596  -0.132  1.00  0.00     0.090 A 
ATOM    153  H3  U   A   6     -10.838  16.340   0.013  1.00  0.00     0.175 HD
ATOM    154  C4  U   A   6     -11.017  18.377   0.202  1.00  0.00     0.253 A 
ATOM    155  O4  U   A   6     -12.089  18.261   0.799  1.00  0.00    -0.269 OA
ATOM    156 O3'  A   A   7     -10.770  15.478  -8.227  1.00  0.00    -0.309 OA
ATOM    157 C3'  A   A   7     -10.783  15.872  -6.868  1.00  0.00     0.192 C 
ATOM    158 C4'  A   A   7      -9.375  15.984  -6.312  1.00  0.00     0.179 C 
ATOM    159 C2'  A   A   7     -11.419  14.829  -5.963  1.00  0.00     0.196 C 
ATOM    160 C5'  A   A   7      -8.659  17.274  -6.600  1.00  0.00     0.204 C 
ATOM    161 O4'  A   A   7      -9.538  15.808  -4.883  1.00  0.00    -0.347 OA
ATOM    162 C1'  A   A   7     -10.744  15.131  -4.618  1.00  0.00     0.253 C 
ATOM    163 O2'  A   A   7     -11.023  13.528  -6.378  1.00  0.00    -0.386 OA
ATOM    164 O5'  A   A   7      -9.416  18.410  -6.209  1.00  0.00    -0.316 OA
ATOM    165  N9  A   A   7     -11.563  15.979  -3.735  1.00  0.00    -0.285 N 
ATOM    166 HO2' A   A   7     -10.852  12.965  -5.582  1.00  0.00     0.211 HD
ATOM    167  P   A   A   7      -8.719  19.849  -6.225  1.00  0.00     0.267 P 
ATOM    168  C8  A   A   7     -11.492  17.342  -3.589  1.00  0.00     0.204 A 
ATOM    169  C4  A   A   7     -12.535  15.549  -2.871  1.00  0.00     0.167 A 
ATOM    170 OP1  A   A   7      -8.158  20.101  -7.574  1.00  0.00    -0.276 OA
ATOM    171 OP2  A   A   7      -9.682  20.797  -5.629  1.00  0.00    -0.755 OA
ATOM    172  N7  A   A   7     -12.340  17.819  -2.707  1.00  0.00    -0.231 NA
ATOM    173  C5  A   A   7     -13.009  16.691  -2.248  1.00  0.00     0.150 A 
ATOM    174  N3  A   A   7     -12.938  14.284  -2.675  1.00  0.00    -0.216 NA
ATOM    175  C6  A   A   7     -14.030  16.519  -1.296  1.00  0.00     0.155 A 
ATOM    176  C2  A   A   7     -13.907  14.244  -1.762  1.00  0.00     0.226 A 
ATOM    177  N1  A   A   7     -14.466  15.258  -1.075  1.00  0.00    -0.217 NA
ATOM    178  N6  A   A   7     -14.583  17.525  -0.608  1.00  0.00    -0.382 N 
ATOM    179 H61  A   A   7     -14.264  18.492  -0.763  1.00  0.00     0.158 HD
ATOM    180 H62  A   A   7     -15.328  17.332   0.077  1.00  0.00     0.158 HD
ATOM    181 O3'  C   A   8     -14.458  11.557  -9.912  1.00  0.00    -0.309 OA
ATOM    182 C3'  C   A   8     -14.809  12.935  -9.859  1.00  0.00     0.192 C 
ATOM    183 C4'  C   A   8     -14.129  13.564  -8.644  1.00  0.00     0.179 C 
ATOM    184 C2'  C   A   8     -16.278  13.041  -9.486  1.00  0.00     0.196 C 
ATOM    185 C5'  C   A   8     -13.848  15.043  -8.760  1.00  0.00     0.204 C 
ATOM    186 O4'  C   A   8     -15.032  13.341  -7.525  1.00  0.00    -0.346 OA
ATOM    187 C1'  C   A   8     -16.222  12.730  -7.989  1.00  0.00     0.255 C 
ATOM    188 O2'  C   A   8     -17.126  12.160 -10.188  1.00  0.00    -0.386 OA
ATOM    189 O5'  C   A   8     -12.808  15.310  -9.698  1.00  0.00    -0.316 OA
ATOM    190  N1  C   A   8     -17.346  13.255  -7.199  1.00  0.00    -0.270 N 
ATOM    191 HO2' C   A   8     -17.647  11.619  -9.543  1.00  0.00     0.211 HD
ATOM    192  P   C   A   8     -11.608  16.292  -9.330  1.00  0.00     0.267 P 
ATOM    193  C2  C   A   8     -17.650  14.625  -7.188  1.00  0.00     0.351 A 
ATOM    194  C6  C   A   8     -18.096  12.383  -6.460  1.00  0.00     0.097 A 
ATOM    195 OP1  C   A   8     -10.720  16.392 -10.523  1.00  0.00    -0.276 OA
ATOM    196 OP2  C   A   8     -12.207  17.483  -8.660  1.00  0.00    -0.755 OA
ATOM    197  O2  C   A   8     -16.971  15.439  -7.841  1.00  0.00    -0.246 OA
ATOM    198  N3  C   A   8     -18.693  15.057  -6.443  1.00  0.00    -0.176 NA
ATOM    199  C5  C   A   8     -19.128  12.801  -5.717  1.00  0.00     0.065 A 
ATOM    200  C4  C   A   8     -19.412  14.202  -5.731  1.00  0.00     0.130 A 
ATOM    201  N4  C   A   8     -20.422  14.705  -5.019  1.00  0.00    -0.383 N 
ATOM    202 H41  C   A   8     -21.011  14.081  -4.449  1.00  0.00     0.158 HD
ATOM    203 H42  C   A   8     -20.613  15.717  -5.040  1.00  0.00     0.158 HD
ATOM    204 O3'  U   A   9      -8.813   9.384  -9.997  1.00  0.00    -0.309 OA
ATOM    205 C3'  U   A   9      -9.973   9.423  -9.183  1.00  0.00     0.192 C 
ATOM    206 C4'  U   A   9     -10.476  10.838  -8.914  1.00  0.00     0.179 C 
ATOM    207 C2'  U   A   9      -9.734   8.887  -7.782  1.00  0.00     0.196 C 
ATOM    208 C5'  U   A   9     -11.341  11.446  -9.985  1.00  0.00     0.204 C 
ATOM    209 O4'  U   A   9     -11.249  10.709  -7.692  1.00  0.00    -0.346 OA
ATOM    210 C1'  U   A   9     -10.901   9.514  -7.024  1.00  0.00     0.255 C 
ATOM    211 O2'  U   A   9      -8.534   9.426  -7.248  1.00  0.00    -0.386 OA
ATOM    212 O5'  U   A   9     -12.272  10.498 -10.478  1.00  0.00    -0.316 OA
ATOM    213  N1  U   A   9     -12.093   8.626  -6.974  1.00  0.00    -0.271 N 
ATOM    214 HO2' U   A   9      -8.575   9.407  -6.259  1.00  0.00     0.211 HD
ATOM    215  P   U   A   9     -13.635  10.960 -11.148  1.00  0.00     0.267 P 
ATOM    216  C2  U   A   9     -12.095   7.571  -6.076  1.00  0.00     0.330 A 
ATOM    217  C6  U   A   9     -13.175   8.848  -7.792  1.00  0.00     0.099 A 
ATOM    218 OP1  U   A   9     -13.322  12.024 -12.135  1.00  0.00    -0.276 OA
ATOM    219 OP2  U   A   9     -14.342   9.731 -11.587  1.00  0.00    -0.756 OA
ATOM    220  O2  U   A   9     -11.158   7.315  -5.339  1.00  0.00    -0.248 OA
ATOM    221  N3  U   A   9     -13.228   6.796  -6.081  1.00  0.00    -0.274 N 
ATOM    222  C5  U   A   9     -14.271   8.081  -7.766  1.00  0.00     0.090 A 
ATOM    223  H3  U   A   9     -13.242   6.000  -5.428  1.00  0.00     0.175 HD
ATOM    224  C4  U   A   9     -14.353   6.968  -6.868  1.00  0.00     0.253 A 
ATOM    225  O4  U   A   9     -15.317   6.196  -6.756  1.00  0.00    -0.269 OA
ATOM    226 O3'  A   A  10      -5.827   4.185 -10.092  1.00  0.00    -0.309 OA
ATOM    227 C3'  A   A  10      -6.930   4.654  -9.337  1.00  0.00     0.192 C 
ATOM    228 C4'  A   A  10      -6.686   6.010  -8.682  1.00  0.00     0.179 C 
ATOM    229 C2'  A   A  10      -7.259   3.770  -8.147  1.00  0.00     0.196 C 
ATOM    230 C5'  A   A  10      -6.872   7.219  -9.567  1.00  0.00     0.204 C 
ATOM    231 O4'  A   A  10      -7.653   6.045  -7.594  1.00  0.00    -0.347 OA
ATOM    232 C1'  A   A  10      -8.076   4.733  -7.283  1.00  0.00     0.253 C 
ATOM    233 O2'  A   A  10      -6.068   3.450  -7.446  1.00  0.00    -0.386 OA
ATOM    234 O5'  A   A  10      -7.987   7.044 -10.427  1.00  0.00    -0.316 OA
ATOM    235  N9  A   A  10      -9.536   4.635  -7.526  1.00  0.00    -0.285 N 
ATOM    236 HO2' A   A  10      -6.236   3.495  -6.471  1.00  0.00     0.211 HD
ATOM    237  P   A   A  10      -8.665   8.279 -11.161  1.00  0.00     0.267 P 
ATOM    238  C8  A   A  10     -10.309   5.406  -8.365  1.00  0.00     0.204 A 
ATOM    239  C4  A   A  10     -10.426   3.775  -6.920  1.00  0.00     0.167 A 
ATOM    240 OP1  A   A  10      -7.724   8.779 -12.200  1.00  0.00    -0.276 OA
ATOM    241 OP2  A   A  10     -10.034   7.860 -11.564  1.00  0.00    -0.755 OA
ATOM    242  N7  A   A  10     -11.592   5.109  -8.359  1.00  0.00    -0.231 NA
ATOM    243  C5  A   A  10     -11.682   4.069  -7.441  1.00  0.00     0.150 A 
ATOM    244  N3  A   A  10     -10.141   2.833  -6.010  1.00  0.00    -0.216 NA
ATOM    245  C6  A   A  10     -12.771   3.304  -6.965  1.00  0.00     0.155 A 
ATOM    246  C2  A   A  10     -11.240   2.171  -5.652  1.00  0.00     0.226 A 
ATOM    247  N1  A   A  10     -12.504   2.349  -6.054  1.00  0.00    -0.217 NA
ATOM    248  N6  A   A  10     -14.048   3.456  -7.343  1.00  0.00    -0.382 N 
ATOM    249 H61  A   A  10     -14.297   4.175  -8.038  1.00  0.00     0.158 HD
ATOM    250 H62  A   A  10     -14.780   2.854  -6.939  1.00  0.00     0.158 HD
ATOM    251 O3'  C   A  11      -6.368  -1.959 -10.698  1.00  0.00    -0.309 OA
ATOM    252 C3'  C   A  11      -7.184  -0.945 -10.131  1.00  0.00     0.192 C 
ATOM    253 C4'  C   A  11      -6.417   0.007  -9.223  1.00  0.00     0.179 C 
ATOM    254 C2'  C   A  11      -8.274  -1.476  -9.213  1.00  0.00     0.196 C 
ATOM    255 C5'  C   A  11      -5.663   1.106  -9.922  1.00  0.00     0.204 C 
ATOM    256 O4'  C   A  11      -7.443   0.590  -8.376  1.00  0.00    -0.346 OA
ATOM    257 C1'  C   A  11      -8.583  -0.245  -8.359  1.00  0.00     0.255 C 
ATOM    258 O2'  C   A  11      -7.773  -2.490  -8.362  1.00  0.00    -0.386 OA
ATOM    259 O5'  C   A  11      -6.518   1.845 -10.783  1.00  0.00    -0.316 OA
ATOM    260  N1  C   A  11      -9.755   0.497  -8.880  1.00  0.00    -0.270 N 
ATOM    261 HO2' C   A  11      -7.905  -2.223  -7.418  1.00  0.00     0.211 HD
ATOM    262  P   C   A  11      -6.060   3.248 -11.385  1.00  0.00     0.267 P 
ATOM    263  C2  C   A  11     -11.000   0.025  -8.467  1.00  0.00     0.351 A 
ATOM    264  C6  C   A  11      -9.671   1.563  -9.737  1.00  0.00     0.097 A 
ATOM    265 OP1  C   A  11      -4.748   3.067 -12.059  1.00  0.00    -0.276 OA
ATOM    266 OP2  C   A  11      -7.218   3.780 -12.148  1.00  0.00    -0.755 OA
ATOM    267  O2  C   A  11     -11.036  -0.949  -7.702  1.00  0.00    -0.246 OA
ATOM    268  N3  C   A  11     -12.125   0.635  -8.900  1.00  0.00    -0.176 NA
ATOM    269  C5  C   A  11     -10.783   2.179 -10.174  1.00  0.00     0.065 A 
ATOM    270  C4  C   A  11     -12.043   1.675  -9.727  1.00  0.00     0.130 A 
ATOM    271  N4  C   A  11     -13.198   2.232 -10.123  1.00  0.00    -0.383 N 
ATOM    272 H41  C   A  11     -13.188   3.039 -10.763  1.00  0.00     0.158 HD
ATOM    273 H42  C   A  11     -14.095   1.852  -9.787  1.00  0.00     0.158 HD
ATOM    274 O3'  C   A  12      -9.224  -7.046 -12.485  1.00  0.00    -0.309 OA
ATOM    275 C3'  C   A  12      -9.771  -5.920 -11.820  1.00  0.00     0.192 C 
ATOM    276 C4'  C   A  12      -9.024  -5.537 -10.552  1.00  0.00     0.179 C 
ATOM    277 C2'  C   A  12     -11.195  -6.123 -11.320  1.00  0.00     0.196 C 
ATOM    278 C5'  C   A  12      -7.745  -4.773 -10.765  1.00  0.00     0.204 C 
ATOM    279 O4'  C   A  12      -9.984  -4.708  -9.832  1.00  0.00    -0.346 OA
ATOM    280 C1'  C   A  12     -11.301  -5.023 -10.256  1.00  0.00     0.255 C 
ATOM    281 O2'  C   A  12     -11.321  -7.383 -10.674  1.00  0.00    -0.386 OA
ATOM    282 O5'  C   A  12      -7.981  -3.675 -11.629  1.00  0.00    -0.316 OA
ATOM    283  N1  C   A  12     -11.987  -3.800 -10.754  1.00  0.00    -0.270 N 
ATOM    284 HO2' C   A  12     -11.308  -7.253  -9.693  1.00  0.00     0.211 HD
ATOM    285  P   C   A  12      -6.815  -2.681 -12.069  1.00  0.00     0.267 P 
ATOM    286  C2  C   A  12     -13.391  -3.816 -10.809  1.00  0.00     0.351 A 
ATOM    287  C6  C   A  12     -11.304  -2.667 -11.120  1.00  0.00     0.097 A 
ATOM    288 OP1  C   A  12      -5.688  -3.498 -12.583  1.00  0.00    -0.276 OA
ATOM    289 OP2  C   A  12      -7.480  -1.653 -12.917  1.00  0.00    -0.755 OA
ATOM    290  O2  C   A  12     -14.004  -4.857 -10.465  1.00  0.00    -0.246 OA
ATOM    291  N3  C   A  12     -14.047  -2.705 -11.248  1.00  0.00    -0.176 NA
ATOM    292  C5  C   A  12     -11.934  -1.555 -11.546  1.00  0.00     0.065 A 
ATOM    293  C4  C   A  12     -13.361  -1.612 -11.608  1.00  0.00     0.130 A 
ATOM    294  N4  C   A  12     -14.064  -0.547 -12.016  1.00  0.00    -0.383 N 
ATOM    295 H41  C   A  12     -13.576   0.314 -12.302  1.00  0.00     0.158 HD
ATOM    296 H42  C   A  12     -15.093  -0.589 -12.044  1.00  0.00     0.158 HD
ATOM    297 O3'  A   A  13     -12.968  -9.577 -16.501  1.00  0.00    -0.309 OA
ATOM    298 C3'  A   A  13     -13.197  -8.476 -15.647  1.00  0.00     0.192 C 
ATOM    299 C4'  A   A  13     -12.872  -8.808 -14.202  1.00  0.00     0.179 C 
ATOM    300 C2'  A   A  13     -14.654  -8.038 -15.573  1.00  0.00     0.196 C 
ATOM    301 C5'  A   A  13     -11.419  -8.709 -13.841  1.00  0.00     0.204 C 
ATOM    302 O4'  A   A  13     -13.626  -7.837 -13.438  1.00  0.00    -0.347 OA
ATOM    303 C1'  A   A  13     -14.693  -7.337 -14.213  1.00  0.00     0.253 C 
ATOM    304 O2'  A   A  13     -15.517  -9.166 -15.528  1.00  0.00    -0.386 OA
ATOM    305 O5'  A   A  13     -10.864  -7.509 -14.349  1.00  0.00    -0.316 OA
ATOM    306  N9  A   A  13     -14.509  -5.885 -14.332  1.00  0.00    -0.285 N 
ATOM    307 HO2' A   A  13     -15.699  -9.404 -14.585  1.00  0.00     0.211 HD
ATOM    308  P   A   A  13      -9.337  -7.150 -14.087  1.00  0.00     0.267 P 
ATOM    309  C8  A   A  13     -13.333  -5.182 -14.226  1.00  0.00     0.204 A 
ATOM    310  C4  A   A  13     -15.491  -4.958 -14.563  1.00  0.00     0.167 A 
ATOM    311 OP1  A   A  13      -8.578  -8.335 -14.538  1.00  0.00    -0.276 OA
ATOM    312 OP2  A   A  13      -9.117  -5.782 -14.642  1.00  0.00    -0.755 OA
ATOM    313  N7  A   A  13     -13.473  -3.882 -14.368  1.00  0.00    -0.231 NA
ATOM    314  C5  A   A  13     -14.837  -3.730 -14.582  1.00  0.00     0.150 A 
ATOM    315  N3  A   A  13     -16.810  -5.190 -14.735  1.00  0.00    -0.216 NA
ATOM    316  C6  A   A  13     -15.629  -2.589 -14.809  1.00  0.00     0.155 A 
ATOM    317  C2  A   A  13     -17.466  -4.036 -14.933  1.00  0.00     0.226 A 
ATOM    318  N1  A   A  13     -16.971  -2.785 -14.984  1.00  0.00    -0.217 NA
ATOM    319  N6  A   A  13     -15.115  -1.345 -14.855  1.00  0.00    -0.382 N 
ATOM    320 H61  A   A  13     -14.104  -1.200 -14.723  1.00  0.00     0.158 HD
ATOM    321 H62  A   A  13     -15.733  -0.538 -15.022  1.00  0.00     0.158 HD
ATOM    322 O3'  G   A  14     -16.707  -7.769 -21.673  1.00  0.00    -0.309 OA
ATOM    323 C3'  G   A  14     -16.200  -6.879 -20.700  1.00  0.00     0.192 C 
ATOM    324 C4'  G   A  14     -15.744  -7.657 -19.482  1.00  0.00     0.179 C 
ATOM    325 C2'  G   A  14     -17.254  -5.922 -20.160  1.00  0.00     0.196 C 
ATOM    326 C5'  G   A  14     -14.295  -8.029 -19.517  1.00  0.00     0.204 C 
ATOM    327 O4'  G   A  14     -15.985  -6.791 -18.349  1.00  0.00    -0.347 OA
ATOM    328 C1'  G   A  14     -16.795  -5.709 -18.715  1.00  0.00     0.253 C 
ATOM    329 O2'  G   A  14     -18.526  -6.554 -20.155  1.00  0.00    -0.385 OA
ATOM    330 O5'  G   A  14     -14.051  -9.136 -18.687  1.00  0.00    -0.316 OA
ATOM    331  N9  G   A  14     -15.999  -4.487 -18.506  1.00  0.00    -0.285 N 
ATOM    332 HO2' G   A  14     -18.819  -6.699 -19.220  1.00  0.00     0.211 HD
ATOM    333  P   G   A  14     -12.619  -9.353 -18.052  1.00  0.00     0.267 P 
ATOM    334  C8  G   A  14     -14.641  -4.432 -18.299  1.00  0.00     0.204 A 
ATOM    335  C4  G   A  14     -16.462  -3.199 -18.395  1.00  0.00     0.171 A 
ATOM    336 OP1  G   A  14     -12.136 -10.647 -18.582  1.00  0.00    -0.276 OA
ATOM    337 OP2  G   A  14     -11.855  -8.100 -18.251  1.00  0.00    -0.755 OA
ATOM    338  N7  G   A  14     -14.194  -3.222 -18.097  1.00  0.00    -0.229 NA
ATOM    339  C5  G   A  14     -15.338  -2.434 -18.156  1.00  0.00     0.173 A 
ATOM    340  N3  G   A  14     -17.749  -2.809 -18.516  1.00  0.00    -0.195 NA
ATOM    341  C6  G   A  14     -15.501  -1.040 -18.007  1.00  0.00     0.280 A 
ATOM    342  C2  G   A  14     -17.884  -1.506 -18.384  1.00  0.00     0.202 A 
ATOM    343  N1  G   A  14     -16.834  -0.653 -18.140  1.00  0.00    -0.291 N 
ATOM    344  O6  G   A  14     -14.638  -0.191 -17.788  1.00  0.00    -0.267 OA
ATOM    345  N2  G   A  14     -19.102  -0.947 -18.482  1.00  0.00    -0.368 N 
ATOM    346  H1  G   A  14     -17.049   0.350 -18.048  1.00  0.00     0.173 HD
ATOM    347 H21  G   A  14     -19.211   0.072 -18.379  1.00  0.00     0.159 HD
ATOM    348 H22  G   A  14     -19.927  -1.538 -18.660  1.00  0.00     0.159 HD
ATOM    349 O3'  C   A  15     -19.870  -3.941 -25.943  1.00  0.00    -0.309 OA
ATOM    350 C3'  C   A  15     -18.812  -4.751 -25.435  1.00  0.00     0.192 C 
ATOM    351 C4'  C   A  15     -19.196  -5.292 -24.050  1.00  0.00     0.179 C 
ATOM    352 C2'  C   A  15     -17.651  -3.823 -25.109  1.00  0.00     0.196 C 
ATOM    353 C5'  C   A  15     -18.580  -6.623 -23.681  1.00  0.00     0.204 C 
ATOM    354 O4'  C   A  15     -18.740  -4.293 -23.093  1.00  0.00    -0.346 OA
ATOM    355 C1'  C   A  15     -18.116  -3.231 -23.780  1.00  0.00     0.255 C 
ATOM    356 O2'  C   A  15     -17.430  -2.813 -26.070  1.00  0.00    -0.386 OA
ATOM    357 O5'  C   A  15     -17.163  -6.570 -23.815  1.00  0.00    -0.316 OA
ATOM    358  N1  C   A  15     -17.040  -2.655 -22.955  1.00  0.00    -0.270 N 
ATOM    359 HO2' C   A  15     -17.243  -1.956 -25.611  1.00  0.00     0.211 HD
ATOM    360  P   C   A  15     -16.208  -7.675 -23.182  1.00  0.00     0.267 P 
ATOM    361  C2  C   A  15     -17.219  -1.353 -22.464  1.00  0.00     0.351 A 
ATOM    362  C6  C   A  15     -15.874  -3.321 -22.701  1.00  0.00     0.097 A 
ATOM    363 OP1  C   A  15     -16.466  -8.985 -23.829  1.00  0.00    -0.276 OA
ATOM    364 OP2  C   A  15     -14.838  -7.090 -23.179  1.00  0.00    -0.755 OA
ATOM    365  O2  C   A  15     -18.277  -0.756 -22.709  1.00  0.00    -0.246 OA
ATOM    366  N3  C   A  15     -16.249  -0.771 -21.728  1.00  0.00    -0.176 NA
ATOM    367  C5  C   A  15     -14.902  -2.754 -21.970  1.00  0.00     0.065 A 
ATOM    368  C4  C   A  15     -15.120  -1.433 -21.479  1.00  0.00     0.130 A 
ATOM    369  N4  C   A  15     -14.187  -0.817 -20.749  1.00  0.00    -0.383 N 
ATOM    370 H41  C   A  15     -13.301  -1.296 -20.535  1.00  0.00     0.158 HD
ATOM    371 H42  C   A  15     -14.354   0.137 -20.400  1.00  0.00     0.158 HD
ATOM    372 O3'  U   A  16     -24.586  -0.773 -26.262  1.00  0.00    -0.309 OA
ATOM    373 C3'  U   A  16     -23.169  -0.779 -26.219  1.00  0.00     0.192 C 
ATOM    374 C4'  U   A  16     -22.628  -1.743 -25.175  1.00  0.00     0.179 C 
ATOM    375 C2'  U   A  16     -22.552   0.549 -25.788  1.00  0.00     0.196 C 
ATOM    376 C5'  U   A  16     -22.667  -3.211 -25.538  1.00  0.00     0.204 C 
ATOM    377 O4'  U   A  16     -21.261  -1.281 -24.957  1.00  0.00    -0.346 OA
ATOM    378 C1'  U   A  16     -21.171   0.096 -25.288  1.00  0.00     0.255 C 
ATOM    379 O2'  U   A  16     -23.269   1.098 -24.692  1.00  0.00    -0.386 OA
ATOM    380 O5'  U   A  16     -22.141  -3.462 -26.836  1.00  0.00    -0.316 OA
ATOM    381  N1  U   A  16     -20.120   0.304 -26.318  1.00  0.00    -0.271 N 
ATOM    382 HO2' U   A  16     -22.864   0.788 -23.844  1.00  0.00     0.211 HD
ATOM    383  P   U   A  16     -20.930  -4.488 -27.016  1.00  0.00     0.267 P 
ATOM    384  C2  U   A  16     -19.541   1.561 -26.350  1.00  0.00     0.330 A 
ATOM    385  C6  U   A  16     -19.731  -0.657 -27.225  1.00  0.00     0.099 A 
ATOM    386 OP1  U   A  16     -21.404  -5.805 -26.532  1.00  0.00    -0.276 OA
ATOM    387 OP2  U   A  16     -20.396  -4.339 -28.396  1.00  0.00    -0.756 OA
ATOM    388  O2  U   A  16     -19.853   2.441 -25.568  1.00  0.00    -0.248 OA
ATOM    389  N3  U   A  16     -18.575   1.752 -27.314  1.00  0.00    -0.274 N 
ATOM    390  C5  U   A  16     -18.794  -0.443 -28.162  1.00  0.00     0.090 A 
ATOM    391  H3  U   A  16     -18.129   2.680 -27.343  1.00  0.00     0.175 HD
ATOM    392  C4  U   A  16     -18.144   0.830 -28.243  1.00  0.00     0.253 A 
ATOM    393  O4  U   A  16     -17.269   1.154 -29.049  1.00  0.00    -0.269 OA
ATOM    394 O3'  G   A  17     -22.776   3.699 -29.672  1.00  0.00    -0.309 OA
ATOM    395 C3'  G   A  17     -23.788   3.637 -28.686  1.00  0.00     0.192 C 
ATOM    396 C4'  G   A  17     -25.088   3.079 -29.232  1.00  0.00     0.179 C 
ATOM    397 C2'  G   A  17     -24.193   5.000 -28.140  1.00  0.00     0.196 C 
ATOM    398 C5'  G   A  17     -25.163   1.576 -29.285  1.00  0.00     0.204 C 
ATOM    399 O4'  G   A  17     -26.097   3.586 -28.327  1.00  0.00    -0.347 OA
ATOM    400 C1'  G   A  17     -25.626   4.749 -27.683  1.00  0.00     0.253 C 
ATOM    401 O2'  G   A  17     -24.236   5.957 -29.182  1.00  0.00    -0.385 OA
ATOM    402 O5'  G   A  17     -24.881   1.015 -28.012  1.00  0.00    -0.316 OA
ATOM    403  N9  G   A  17     -25.776   4.609 -26.222  1.00  0.00    -0.285 N 
ATOM    404 HO2' G   A  17     -24.277   6.867 -28.793  1.00  0.00     0.211 HD
ATOM    405  P   G   A  17     -25.363  -0.458 -27.636  1.00  0.00     0.267 P 
ATOM    406  C8  G   A  17     -26.259   3.530 -25.520  1.00  0.00     0.204 A 
ATOM    407  C4  G   A  17     -25.548   5.592 -25.293  1.00  0.00     0.171 A 
ATOM    408 OP1  G   A  17     -26.798  -0.421 -27.255  1.00  0.00    -0.276 OA
ATOM    409 OP2  G   A  17     -24.893  -1.355 -28.724  1.00  0.00    -0.755 OA
ATOM    410  N7  G   A  17     -26.325   3.737 -24.234  1.00  0.00    -0.229 NA
ATOM    411  C5  G   A  17     -25.876   5.037 -24.073  1.00  0.00     0.173 A 
ATOM    412  N3  G   A  17     -25.081   6.828 -25.558  1.00  0.00    -0.195 NA
ATOM    413  C6  G   A  17     -25.724   5.825 -22.897  1.00  0.00     0.280 A 
ATOM    414  C2  G   A  17     -24.941   7.551 -24.457  1.00  0.00     0.202 A 
ATOM    415  N1  G   A  17     -25.237   7.096 -23.195  1.00  0.00    -0.291 N 
ATOM    416  O6  G   A  17     -25.961   5.519 -21.720  1.00  0.00    -0.267 OA
ATOM    417  N2  G   A  17     -24.487   8.815 -24.543  1.00  0.00    -0.368 N 
ATOM    418  H1  G   A  17     -25.087   7.744 -22.409  1.00  0.00     0.173 HD
ATOM    419 H21  G   A  17     -24.376   9.382 -23.690  1.00  0.00     0.159 HD
ATOM    420 H22  G   A  17     -24.250   9.216 -25.462  1.00  0.00     0.159 HD
ATOM    421 O3'  A   A  18     -17.876   6.327 -26.825  1.00  0.00    -0.309 OA
ATOM    422 C3'  A   A  18     -19.238   6.065 -26.516  1.00  0.00     0.192 C 
ATOM    423 C4'  A   A  18     -20.219   6.447 -27.614  1.00  0.00     0.179 C 
ATOM    424 C2'  A   A  18     -19.750   6.862 -25.329  1.00  0.00     0.196 C 
ATOM    425 C5'  A   A  18     -20.349   5.478 -28.769  1.00  0.00     0.204 C 
ATOM    426 O4'  A   A  18     -21.490   6.542 -26.913  1.00  0.00    -0.347 OA
ATOM    427 C1'  A   A  18     -21.257   6.744 -25.530  1.00  0.00     0.253 C 
ATOM    428 O2'  A   A  18     -19.393   8.228 -25.468  1.00  0.00    -0.386 OA
ATOM    429 O5'  A   A  18     -20.714   4.176 -28.323  1.00  0.00    -0.316 OA
ATOM    430  N9  A   A  18     -21.817   5.616 -24.770  1.00  0.00    -0.285 N 
ATOM    431 HO2' A   A  18     -19.287   8.634 -24.571  1.00  0.00     0.211 HD
ATOM    432  P   A   A  18     -21.331   3.099 -29.332  1.00  0.00     0.267 P 
ATOM    433  C8  A   A  18     -22.095   4.334 -25.181  1.00  0.00     0.204 A 
ATOM    434  C4  A   A  18     -22.168   5.663 -23.438  1.00  0.00     0.167 A 
ATOM    435 OP1  A   A  18     -20.533   3.048 -30.579  1.00  0.00    -0.276 OA
ATOM    436 OP2  A   A  18     -21.563   1.844 -28.559  1.00  0.00    -0.755 OA
ATOM    437  N7  A   A  18     -22.594   3.571 -24.230  1.00  0.00    -0.231 NA
ATOM    438  C5  A   A  18     -22.642   4.402 -23.117  1.00  0.00     0.150 A 
ATOM    439  N3  A   A  18     -22.067   6.726 -22.618  1.00  0.00    -0.216 NA
ATOM    440  C6  A   A  18     -23.067   4.212 -21.792  1.00  0.00     0.155 A 
ATOM    441  C2  A   A  18     -22.498   6.422 -21.401  1.00  0.00     0.226 A 
ATOM    442  N1  A   A  18     -22.984   5.264 -20.945  1.00  0.00    -0.217 NA
ATOM    443  N6  A   A  18     -23.556   3.067 -21.311  1.00  0.00    -0.382 N 
ATOM    444 H61  A   A  18     -23.635   2.243 -21.924  1.00  0.00     0.158 HD
ATOM    445 H62  A   A  18     -23.854   3.007 -20.327  1.00  0.00     0.158 HD
ATOM    446 O3'  U   A  19     -13.447   5.890 -23.263  1.00  0.00    -0.309 OA
ATOM    447 C3'  U   A  19     -14.289   5.357 -24.276  1.00  0.00     0.192 C 
ATOM    448 C4'  U   A  19     -15.602   4.933 -23.628  1.00  0.00     0.179 C 
ATOM    449 C2'  U   A  19     -13.722   4.035 -24.771  1.00  0.00     0.196 C 
ATOM    450 C5'  U   A  19     -16.828   5.061 -24.491  1.00  0.00     0.204 C 
ATOM    451 O4'  U   A  19     -15.432   3.546 -23.243  1.00  0.00    -0.346 OA
ATOM    452 C1'  U   A  19     -14.175   3.075 -23.675  1.00  0.00     0.255 C 
ATOM    453 O2'  U   A  19     -12.320   4.014 -24.934  1.00  0.00    -0.386 OA
ATOM    454 O5'  U   A  19     -16.692   4.360 -25.725  1.00  0.00    -0.316 OA
ATOM    455  N1  U   A  19     -14.383   1.709 -24.145  1.00  0.00    -0.271 N 
ATOM    456 HO2' U   A  19     -11.884   4.007 -24.045  1.00  0.00     0.211 HD
ATOM    457  P   U   A  19     -16.866   5.105 -27.128  1.00  0.00     0.267 P 
ATOM    458  C2  U   A  19     -13.437   0.771 -23.803  1.00  0.00     0.330 A 
ATOM    459  C6  U   A  19     -15.497   1.399 -24.889  1.00  0.00     0.099 A 
ATOM    460 OP1  U   A  19     -15.544   5.641 -27.542  1.00  0.00    -0.276 OA
ATOM    461 OP2  U   A  19     -17.562   4.162 -28.042  1.00  0.00    -0.756 OA
ATOM    462  O2  U   A  19     -12.451   1.046 -23.140  1.00  0.00    -0.248 OA
ATOM    463  N3  U   A  19     -13.705  -0.486 -24.274  1.00  0.00    -0.274 N 
ATOM    464  C5  U   A  19     -15.733   0.163 -25.335  1.00  0.00     0.090 A 
ATOM    465  H3  U   A  19     -13.019  -1.220 -24.046  1.00  0.00     0.175 HD
ATOM    466  C4  U   A  19     -14.799  -0.872 -25.023  1.00  0.00     0.253 A 
ATOM    467  O4  U   A  19     -14.903  -2.042 -25.369  1.00  0.00    -0.269 OA
ATOM    468 O3'  G   A  20     -17.377  10.359 -20.839  1.00  0.00    -0.309 OA
ATOM    469 C3'  G   A  20     -17.217   8.961 -21.009  1.00  0.00     0.192 C 
ATOM    470 C4'  G   A  20     -17.226   8.547 -22.480  1.00  0.00     0.179 C 
ATOM    471 C2'  G   A  20     -18.352   8.147 -20.401  1.00  0.00     0.196 C 
ATOM    472 C5'  G   A  20     -15.871   8.528 -23.147  1.00  0.00     0.204 C 
ATOM    473 O4'  G   A  20     -17.789   7.205 -22.492  1.00  0.00    -0.347 OA
ATOM    474 C1'  G   A  20     -18.265   6.860 -21.213  1.00  0.00     0.253 C 
ATOM    475 O2'  G   A  20     -19.604   8.760 -20.675  1.00  0.00    -0.385 OA
ATOM    476 O5'  G   A  20     -14.921   7.777 -22.393  1.00  0.00    -0.316 OA
ATOM    477  N9  G   A  20     -17.297   5.884 -20.672  1.00  0.00    -0.285 N 
ATOM    478 HO2' G   A  20     -20.056   8.982 -19.823  1.00  0.00     0.211 HD
ATOM    479  P   G   A  20     -13.459   7.466 -22.969  1.00  0.00     0.267 P 
ATOM    480  C8  G   A  20     -16.136   6.044 -19.937  1.00  0.00     0.204 A 
ATOM    481  C4  G   A  20     -17.400   4.548 -20.934  1.00  0.00     0.171 A 
ATOM    482 OP1  G   A  20     -13.344   8.148 -24.286  1.00  0.00    -0.276 OA
ATOM    483 OP2  G   A  20     -12.457   7.695 -21.895  1.00  0.00    -0.755 OA
ATOM    484  N7  G   A  20     -15.514   4.914 -19.701  1.00  0.00    -0.229 NA
ATOM    485  C5  G   A  20     -16.309   3.956 -20.334  1.00  0.00     0.173 A 
ATOM    486  N3  G   A  20     -18.405   3.997 -21.644  1.00  0.00    -0.195 NA
ATOM    487  C6  G   A  20     -16.172   2.547 -20.445  1.00  0.00     0.280 A 
ATOM    488  C2  G   A  20     -18.268   2.686 -21.744  1.00  0.00     0.202 A 
ATOM    489  N1  G   A  20     -17.222   1.979 -21.181  1.00  0.00    -0.291 N 
ATOM    490  O6  G   A  20     -15.267   1.836 -19.982  1.00  0.00    -0.267 OA
ATOM    491  N2  G   A  20     -19.204   1.998 -22.431  1.00  0.00    -0.368 N 
ATOM    492  H1  G   A  20     -17.213   0.957 -21.312  1.00  0.00     0.173 HD
ATOM    493 H21  G   A  20     -19.125   0.975 -22.526  1.00  0.00     0.159 HD
ATOM    494 H22  G   A  20     -19.997   2.495 -22.860  1.00  0.00     0.159 HD
ATOM    495 O3'  A   A  21     -12.759  14.216 -22.018  1.00  0.00    -0.309 OA
ATOM    496 C3'  A   A  21     -14.061  13.935 -22.499  1.00  0.00     0.192 C 
ATOM    497 C4'  A   A  21     -14.294  12.465 -22.802  1.00  0.00     0.179 C 
ATOM    498 C2'  A   A  21     -14.385  14.594 -23.830  1.00  0.00     0.196 C 
ATOM    499 C5'  A   A  21     -14.563  11.582 -21.613  1.00  0.00     0.204 C 
ATOM    500 O4'  A   A  21     -15.453  12.479 -23.681  1.00  0.00    -0.347 OA
ATOM    501 C1'  A   A  21     -15.579  13.753 -24.284  1.00  0.00     0.253 C 
ATOM    502 O2'  A   A  21     -13.323  14.389 -24.747  1.00  0.00    -0.386 OA
ATOM    503 O5'  A   A  21     -15.585  12.121 -20.791  1.00  0.00    -0.316 OA
ATOM    504  N9  A   A  21     -16.870  14.359 -23.883  1.00  0.00    -0.285 N 
ATOM    505 HO2' A   A  21     -12.483  14.227 -24.248  1.00  0.00     0.211 HD
ATOM    506  P   A   A  21     -16.439  11.183 -19.827  1.00  0.00     0.267 P 
ATOM    507  C8  A   A  21     -17.786  13.920 -22.948  1.00  0.00     0.204 A 
ATOM    508  C4  A   A  21     -17.409  15.515 -24.405  1.00  0.00     0.167 A 
ATOM    509 OP1  A   A  21     -15.492  10.268 -19.127  1.00  0.00    -0.276 OA
ATOM    510 OP2  A   A  21     -17.358  12.044 -19.040  1.00  0.00    -0.755 OA
ATOM    511  N7  A   A  21     -18.846  14.691 -22.833  1.00  0.00    -0.231 NA
ATOM    512  C5  A   A  21     -18.621  15.710 -23.754  1.00  0.00     0.150 A 
ATOM    513  N3  A   A  21     -16.867  16.304 -25.354  1.00  0.00    -0.216 NA
ATOM    514  C6  A   A  21     -19.366  16.854 -24.129  1.00  0.00     0.155 A 
ATOM    515  C2  A   A  21     -17.656  17.345 -25.621  1.00  0.00     0.226 A 
ATOM    516  N1  A   A  21     -18.841  17.665 -25.082  1.00  0.00    -0.217 NA
ATOM    517  N6  A   A  21     -20.550  17.187 -23.601  1.00  0.00    -0.382 N 
ATOM    518 H61  A   A  21     -20.976  16.593 -22.876  1.00  0.00     0.158 HD
ATOM    519 H62  A   A  21     -21.035  18.038 -23.920  1.00  0.00     0.158 HD
ATOM    520 O3'  G   A  22     -12.591  20.207 -21.245  1.00  0.00    -0.309 OA
ATOM    521 C3'  G   A  22     -13.626  19.288 -21.552  1.00  0.00     0.192 C 
ATOM    522 C4'  G   A  22     -13.234  18.309 -22.646  1.00  0.00     0.179 C 
ATOM    523 C2'  G   A  22     -14.879  19.940 -22.123  1.00  0.00     0.196 C 
ATOM    524 C5'  G   A  22     -12.399  17.133 -22.202  1.00  0.00     0.204 C 
ATOM    525 O4'  G   A  22     -14.504  17.844 -23.176  1.00  0.00    -0.347 OA
ATOM    526 C1'  G   A  22     -15.531  18.755 -22.838  1.00  0.00     0.253 C 
ATOM    527 O2'  G   A  22     -14.535  20.909 -23.101  1.00  0.00    -0.385 OA
ATOM    528 O5'  G   A  22     -12.931  16.531 -21.027  1.00  0.00    -0.316 OA
ATOM    529  N9  G   A  22     -16.522  18.058 -21.988  1.00  0.00    -0.285 N 
ATOM    530 HO2' G   A  22     -14.240  21.741 -22.652  1.00  0.00     0.211 HD
ATOM    531  P   G   A  22     -12.578  15.025 -20.640  1.00  0.00     0.267 P 
ATOM    532  C8  G   A  22     -16.364  16.833 -21.378  1.00  0.00     0.204 A 
ATOM    533  C4  G   A  22     -17.790  18.487 -21.648  1.00  0.00     0.171 A 
ATOM    534 OP1  G   A  22     -11.153  14.964 -20.222  1.00  0.00    -0.276 OA
ATOM    535 OP2  G   A  22     -13.637  14.549 -19.714  1.00  0.00    -0.755 OA
ATOM    536  N7  G   A  22     -17.404  16.453 -20.688  1.00  0.00    -0.229 NA
ATOM    537  C5  G   A  22     -18.316  17.487 -20.847  1.00  0.00     0.173 A 
ATOM    538  N3  G   A  22     -18.378  19.647 -22.024  1.00  0.00    -0.195 NA
ATOM    539  C6  G   A  22     -19.636  17.637 -20.333  1.00  0.00     0.280 A 
ATOM    540  C2  G   A  22     -19.605  19.776 -21.532  1.00  0.00     0.202 A 
ATOM    541  N1  G   A  22     -20.217  18.841 -20.730  1.00  0.00    -0.291 N 
ATOM    542  O6  G   A  22     -20.277  16.868 -19.609  1.00  0.00    -0.267 OA
ATOM    543  N2  G   A  22     -20.333  20.868 -21.806  1.00  0.00    -0.368 N 
ATOM    544  H1  G   A  22     -21.171  19.044 -20.400  1.00  0.00     0.173 HD
ATOM    545 H21  G   A  22     -21.284  20.963 -21.422  1.00  0.00     0.159 HD
ATOM    546 H22  G   A  22     -19.941  21.612 -22.401  1.00  0.00     0.159 HD
ATOM    547 O3'  U   A  23     -14.657  24.883 -17.927  1.00  0.00    -0.309 OA
ATOM    548 C3'  U   A  23     -15.333  23.757 -18.466  1.00  0.00     0.192 C 
ATOM    549 C4'  U   A  23     -15.008  23.510 -19.928  1.00  0.00     0.179 C 
ATOM    550 C2'  U   A  23     -16.852  23.895 -18.489  1.00  0.00     0.196 C 
ATOM    551 C5'  U   A  23     -13.691  22.840 -20.217  1.00  0.00     0.204 C 
ATOM    552 O4'  U   A  23     -16.103  22.675 -20.386  1.00  0.00    -0.346 OA
ATOM    553 C1'  U   A  23     -17.228  22.860 -19.547  1.00  0.00     0.255 C 
ATOM    554 O2'  U   A  23     -17.240  25.173 -18.972  1.00  0.00    -0.386 OA
ATOM    555 O5'  U   A  23     -13.515  21.677 -19.424  1.00  0.00    -0.316 OA
ATOM    556  N1  U   A  23     -17.602  21.563 -18.940  1.00  0.00    -0.271 N 
ATOM    557 HO2' U   A  23     -17.422  25.774 -18.206  1.00  0.00     0.211 HD
ATOM    558  P   U   A  23     -12.326  20.660 -19.724  1.00  0.00     0.267 P 
ATOM    559  C2  U   A  23     -18.895  21.444 -18.478  1.00  0.00     0.330 A 
ATOM    560  C6  U   A  23     -16.713  20.521 -18.835  1.00  0.00     0.099 A 
ATOM    561 OP1  U   A  23     -11.053  21.420 -19.687  1.00  0.00    -0.276 OA
ATOM    562 OP2  U   A  23     -12.483  19.478 -18.838  1.00  0.00    -0.756 OA
ATOM    563  O2  U   A  23     -19.705  22.351 -18.558  1.00  0.00    -0.248 OA
ATOM    564  N3  U   A  23     -19.207  20.226 -17.924  1.00  0.00    -0.274 N 
ATOM    565  C5  U   A  23     -17.041  19.345 -18.292  1.00  0.00     0.090 A 
ATOM    566  H3  U   A  23     -20.168  20.112 -17.573  1.00  0.00     0.175 HD
ATOM    567  C4  U   A  23     -18.367  19.139 -17.789  1.00  0.00     0.253 A 
ATOM    568  O4  U   A  23     -18.795  18.106 -17.266  1.00  0.00    -0.269 OA
ATOM    569 O3'  C   A  24     -17.414  26.374 -12.654  1.00  0.00    -0.309 OA
ATOM    570 C3'  C   A  24     -17.665  25.319 -13.567  1.00  0.00     0.192 C 
ATOM    571 C4'  C   A  24     -17.703  25.767 -15.016  1.00  0.00     0.179 C 
ATOM    572 C2'  C   A  24     -19.032  24.672 -13.400  1.00  0.00     0.196 C 
ATOM    573 C5'  C   A  24     -16.373  26.028 -15.678  1.00  0.00     0.204 C 
ATOM    574 O4'  C   A  24     -18.401  24.685 -15.688  1.00  0.00    -0.346 OA
ATOM    575 C1'  C   A  24     -19.203  23.987 -14.756  1.00  0.00     0.255 C 
ATOM    576 O2'  C   A  24     -20.041  25.663 -13.274  1.00  0.00    -0.386 OA
ATOM    577 O5'  C   A  24     -15.486  24.926 -15.547  1.00  0.00    -0.316 OA
ATOM    578  N1  C   A  24     -18.775  22.570 -14.715  1.00  0.00    -0.270 N 
ATOM    579 HO2' C   A  24     -20.216  25.835 -12.315  1.00  0.00     0.211 HD
ATOM    580  P   C   A  24     -14.142  24.872 -16.402  1.00  0.00     0.267 P 
ATOM    581  C2  C   A  24     -19.660  21.608 -14.203  1.00  0.00     0.351 A 
ATOM    582  C6  C   A  24     -17.535  22.202 -15.161  1.00  0.00     0.097 A 
ATOM    583 OP1  C   A  24     -13.416  26.146 -16.170  1.00  0.00    -0.276 OA
ATOM    584 OP2  C   A  24     -13.461  23.579 -16.127  1.00  0.00    -0.755 OA
ATOM    585  O2  C   A  24     -20.784  21.951 -13.798  1.00  0.00    -0.246 OA
ATOM    586  N3  C   A  24     -19.270  20.314 -14.163  1.00  0.00    -0.176 NA
ATOM    587  C5  C   A  24     -17.139  20.924 -15.125  1.00  0.00     0.065 A 
ATOM    588  C4  C   A  24     -18.059  19.968 -14.603  1.00  0.00     0.130 A 
ATOM    589  N4  C   A  24     -17.720  18.679 -14.543  1.00  0.00    -0.383 N 
ATOM    590 H41  C   A  24     -16.793  18.374 -14.874  1.00  0.00     0.158 HD
ATOM    591 H42  C   A  24     -18.385  17.989 -14.166  1.00  0.00     0.158 HD
ATOM    592 O3'  C   A  25     -19.895  25.381  -7.242  1.00  0.00    -0.309 OA
ATOM    593 C3'  C   A  25     -19.836  24.570  -8.392  1.00  0.00     0.192 C 
ATOM    594 C4'  C   A  25     -20.165  25.313  -9.672  1.00  0.00     0.179 C 
ATOM    595 C2'  C   A  25     -20.873  23.462  -8.397  1.00  0.00     0.196 C 
ATOM    596 C5'  C   A  25     -19.084  26.199 -10.234  1.00  0.00     0.204 C 
ATOM    597 O4'  C   A  25     -20.482  24.248 -10.603  1.00  0.00    -0.346 OA
ATOM    598 C1'  C   A  25     -20.916  23.109  -9.883  1.00  0.00     0.255 C 
ATOM    599 O2'  C   A  25     -22.139  23.978  -8.026  1.00  0.00    -0.386 OA
ATOM    600 O5'  C   A  25     -17.848  25.512 -10.330  1.00  0.00    -0.316 OA
ATOM    601  N1  C   A  25     -20.033  21.961 -10.200  1.00  0.00    -0.270 N 
ATOM    602 HO2' C   A  25     -22.208  24.006  -7.039  1.00  0.00     0.211 HD
ATOM    603  P   C   A  25     -16.678  26.064 -11.258  1.00  0.00     0.267 P 
ATOM    604  C2  C   A  25     -20.463  20.684  -9.835  1.00  0.00     0.351 A 
ATOM    605  C6  C   A  25     -18.820  22.121 -10.817  1.00  0.00     0.097 A 
ATOM    606 OP1  C   A  25     -16.145  27.332 -10.695  1.00  0.00    -0.276 OA
ATOM    607 OP2  C   A  25     -15.768  24.912 -11.483  1.00  0.00    -0.755 OA
ATOM    608  O2  C   A  25     -21.561  20.568  -9.275  1.00  0.00    -0.246 OA
ATOM    609  N3  C   A  25     -19.681  19.610 -10.102  1.00  0.00    -0.176 NA
ATOM    610  C5  C   A  25     -18.031  21.068 -11.094  1.00  0.00     0.065 A 
ATOM    611  C4  C   A  25     -18.506  19.780 -10.714  1.00  0.00     0.130 A 
ATOM    612  N4  C   A  25     -17.769  18.699 -10.964  1.00  0.00    -0.383 N 
ATOM    613 H41  C   A  25     -16.858  18.795 -11.435  1.00  0.00     0.158 HD
ATOM    614 H42  C   A  25     -18.110  17.768 -10.687  1.00  0.00     0.158 HD
ATOM    615 O3'  C   A  26     -20.661  21.981  -2.090  1.00  0.00    -0.309 OA
ATOM    616 C3'  C   A  26     -20.575  21.600  -3.455  1.00  0.00     0.192 C 
ATOM    617 C4'  C   A  26     -21.429  22.430  -4.399  1.00  0.00     0.179 C 
ATOM    618 C2'  C   A  26     -21.082  20.194  -3.739  1.00  0.00     0.196 C 
ATOM    619 C5'  C   A  26     -20.919  23.803  -4.752  1.00  0.00     0.204 C 
ATOM    620 O4'  C   A  26     -21.497  21.607  -5.595  1.00  0.00    -0.346 OA
ATOM    621 C1'  C   A  26     -21.248  20.252  -5.251  1.00  0.00     0.255 C 
ATOM    622 O2'  C   A  26     -22.369  20.006  -3.170  1.00  0.00    -0.386 OA
ATOM    623 O5'  C   A  26     -19.638  23.740  -5.353  1.00  0.00    -0.316 OA
ATOM    624  N1  C   A  26     -20.030  19.774  -5.948  1.00  0.00    -0.270 N 
ATOM    625 HO2' C   A  26     -22.298  20.016  -2.183  1.00  0.00     0.211 HD
ATOM    626  P   C   A  26     -18.962  25.041  -5.980  1.00  0.00     0.267 P 
ATOM    627  C2  C   A  26     -19.813  18.392  -6.025  1.00  0.00     0.351 A 
ATOM    628  C6  C   A  26     -19.130  20.637  -6.504  1.00  0.00     0.097 A 
ATOM    629 OP1  C   A  26     -19.103  26.164  -5.017  1.00  0.00    -0.276 OA
ATOM    630 OP2  C   A  26     -17.623  24.612  -6.472  1.00  0.00    -0.755 OA
ATOM    631  O2  C   A  26     -20.628  17.598  -5.515  1.00  0.00    -0.246 OA
ATOM    632  N3  C   A  26     -18.712  17.939  -6.663  1.00  0.00    -0.176 NA
ATOM    633  C5  C   A  26     -18.034  20.204  -7.138  1.00  0.00     0.065 A 
ATOM    634  C4  C   A  26     -17.846  18.791  -7.199  1.00  0.00     0.130 A 
ATOM    635  N4  C   A  26     -16.781  18.263  -7.811  1.00  0.00    -0.383 N 
ATOM    636 H41  C   A  26     -16.078  18.879  -8.244  1.00  0.00     0.158 HD
ATOM    637 H42  C   A  26     -16.664  17.240  -7.850  1.00  0.00     0.158 HD
ATOM    638 O3'  A   A  27     -18.535  17.129   1.065  1.00  0.00    -0.309 OA
ATOM    639 C3'  A   A  27     -18.378  17.490  -0.292  1.00  0.00     0.192 C 
ATOM    640 C4'  A   A  27     -19.696  17.943  -0.894  1.00  0.00     0.179 C 
ATOM    641 C2'  A   A  27     -17.977  16.336  -1.210  1.00  0.00     0.196 C 
ATOM    642 C5'  A   A  27     -20.077  19.368  -0.599  1.00  0.00     0.204 C 
ATOM    643 O4'  A   A  27     -19.511  17.765  -2.321  1.00  0.00    -0.347 OA
ATOM    644 C1'  A   A  27     -18.469  16.838  -2.562  1.00  0.00     0.253 C 
ATOM    645 O2'  A   A  27     -18.717  15.169  -0.902  1.00  0.00    -0.386 OA
ATOM    646 O5'  A   A  27     -19.100  20.263  -1.101  1.00  0.00    -0.316 OA
ATOM    647  N9  A   A  27     -17.402  17.514  -3.316  1.00  0.00    -0.285 N 
ATOM    648 HO2' A   A  27     -18.781  15.068   0.081  1.00  0.00     0.211 HD
ATOM    649  P   A   A  27     -19.367  21.834  -1.144  1.00  0.00     0.267 P 
ATOM    650  C8  A   A  27     -17.149  18.852  -3.401  1.00  0.00     0.204 A 
ATOM    651  C4  A   A  27     -16.439  16.894  -4.070  1.00  0.00     0.167 A 
ATOM    652 OP1  A   A  27     -19.688  22.274   0.238  1.00  0.00    -0.276 OA
ATOM    653 OP2  A   A  27     -18.212  22.433  -1.856  1.00  0.00    -0.755 OA
ATOM    654  N7  A   A  27     -16.112  19.138  -4.158  1.00  0.00    -0.231 NA
ATOM    655  C5  A   A  27     -15.657  17.903  -4.588  1.00  0.00     0.150 A 
ATOM    656  N3  A   A  27     -16.308  15.574  -4.273  1.00  0.00    -0.216 NA
ATOM    657  C6  A   A  27     -14.593  17.518  -5.417  1.00  0.00     0.155 A 
ATOM    658  C2  A   A  27     -15.270  15.335  -5.064  1.00  0.00     0.226 A 
ATOM    659  N1  A   A  27     -14.425  16.200  -5.642  1.00  0.00    -0.217 NA
ATOM    660  N6  A   A  27     -13.739  18.369  -5.989  1.00  0.00    -0.382 N 
ATOM    661 H61  A   A  27     -13.842  19.382  -5.836  1.00  0.00     0.158 HD
ATOM    662 H62  A   A  27     -12.977  18.012  -6.584  1.00  0.00     0.158 HD
ATOM    663 O3'  A   A  28     -16.037  12.756   4.867  1.00  0.00    -0.309 OA
ATOM    664 C3'  A   A  28     -15.956  13.890   4.008  1.00  0.00     0.192 C 
ATOM    665 C4'  A   A  28     -16.496  13.526   2.626  1.00  0.00     0.179 C 
ATOM    666 C2'  A   A  28     -14.491  14.195   3.732  1.00  0.00     0.196 C 
ATOM    667 C5'  A   A  28     -17.256  14.621   1.919  1.00  0.00     0.204 C 
ATOM    668 O4'  A   A  28     -15.344  13.132   1.830  1.00  0.00    -0.347 OA
ATOM    669 C1'  A   A  28     -14.178  13.199   2.621  1.00  0.00     0.253 C 
ATOM    670 O2'  A   A  28     -13.648  14.010   4.848  1.00  0.00    -0.386 OA
ATOM    671 O5'  A   A  28     -16.546  15.856   1.926  1.00  0.00    -0.316 OA
ATOM    672  N9  A   A  28     -13.073  13.596   1.751  1.00  0.00    -0.285 N 
ATOM    673 HO2' A   A  28     -14.172  14.125   5.680  1.00  0.00     0.211 HD
ATOM    674  P   A   A  28     -17.322  17.235   2.109  1.00  0.00     0.267 P 
ATOM    675  C8  A   A  28     -12.593  14.854   1.511  1.00  0.00     0.204 A 
ATOM    676  C4  A   A  28     -12.326  12.743   0.982  1.00  0.00     0.167 A 
ATOM    677 OP1  A   A  28     -17.935  17.200   3.465  1.00  0.00    -0.276 OA
ATOM    678 OP2  A   A  28     -16.416  18.362   1.736  1.00  0.00    -0.755 OA
ATOM    679  N7  A   A  28     -11.600  14.874   0.653  1.00  0.00    -0.231 NA
ATOM    680  C5  A   A  28     -11.416  13.536   0.318  1.00  0.00     0.150 A 
ATOM    681  N3  A   A  28     -12.444  11.407   0.905  1.00  0.00    -0.216 NA
ATOM    682  C6  A   A  28     -10.516  12.886  -0.547  1.00  0.00     0.155 A 
ATOM    683  C2  A   A  28     -11.540  10.903   0.060  1.00  0.00     0.226 A 
ATOM    684  N1  A   A  28     -10.601  11.537  -0.658  1.00  0.00    -0.217 NA
ATOM    685  N6  A   A  28      -9.582  13.538  -1.247  1.00  0.00    -0.382 N 
ATOM    686 H61  A   A  28      -9.505  14.562  -1.173  1.00  0.00     0.158 HD
ATOM    687 H62  A   A  28      -8.940  13.016  -1.860  1.00  0.00     0.158 HD
ATOM    688 O3'  A   A  29     -21.287  11.702   4.029  1.00  0.00    -0.309 OA
ATOM    689 C3'  A   A  29     -20.326  12.547   4.668  1.00  0.00     0.192 C 
ATOM    690 C4'  A   A  29     -20.395  12.356   6.187  1.00  0.00     0.179 C 
ATOM    691 C2'  A   A  29     -20.708  14.017   4.487  1.00  0.00     0.196 C 
ATOM    692 C5'  A   A  29     -19.066  12.373   6.893  1.00  0.00     0.204 C 
ATOM    693 O4'  A   A  29     -21.224  13.436   6.701  1.00  0.00    -0.347 OA
ATOM    694 C1'  A   A  29     -21.704  14.217   5.627  1.00  0.00     0.253 C 
ATOM    695 O2'  A   A  29     -21.285  14.325   3.237  1.00  0.00    -0.386 OA
ATOM    696 O5'  A   A  29     -18.125  13.175   6.194  1.00  0.00    -0.316 OA
ATOM    697  N9  A   A  29     -21.863  15.608   6.076  1.00  0.00    -0.285 N 
ATOM    698 HO2' A   A  29     -22.150  14.786   3.377  1.00  0.00     0.211 HD
ATOM    699  P   A   A  29     -16.566  12.937   6.373  1.00  0.00     0.267 P 
ATOM    700  C8  A   A  29     -20.921  16.569   6.373  1.00  0.00     0.204 A 
ATOM    701  C4  A   A  29     -23.082  16.210   6.274  1.00  0.00     0.167 A 
ATOM    702 OP1  A   A  29     -15.994  14.197   6.915  1.00  0.00    -0.276 OA
ATOM    703 OP2  A   A  29     -16.379  11.653   7.093  1.00  0.00    -0.755 OA
ATOM    704  N7  A   A  29     -21.441  17.720   6.748  1.00  0.00    -0.231 NA
ATOM    705  C5  A   A  29     -22.815  17.506   6.686  1.00  0.00     0.150 A 
ATOM    706  N3  A   A  29     -24.292  15.642   6.097  1.00  0.00    -0.216 NA
ATOM    707  C6  A   A  29     -23.934  18.325   6.950  1.00  0.00     0.155 A 
ATOM    708  C2  A   A  29     -25.261  16.509   6.375  1.00  0.00     0.226 A 
ATOM    709  N1  A   A  29     -25.165  17.782   6.783  1.00  0.00    -0.217 NA
ATOM    710  N6  A   A  29     -23.853  19.596   7.358  1.00  0.00    -0.382 N 
ATOM    711 H61  A   A  29     -22.931  20.036   7.494  1.00  0.00     0.158 HD
ATOM    712 H62  A   A  29     -24.712  20.135   7.537  1.00  0.00     0.158 HD
ATOM    713 O3'  U   A  30     -21.465  10.495  -1.689  1.00  0.00    -0.309 OA
ATOM    714 C3'  U   A  30     -20.278  10.566  -0.912  1.00  0.00     0.192 C 
ATOM    715 C4'  U   A  30     -20.157  11.841  -0.093  1.00  0.00     0.179 C 
ATOM    716 C2'  U   A  30     -18.980  10.562  -1.717  1.00  0.00     0.196 C 
ATOM    717 C5'  U   A  30     -20.955  11.881   1.190  1.00  0.00     0.204 C 
ATOM    718 O4'  U   A  30     -18.735  11.940   0.205  1.00  0.00    -0.346 OA
ATOM    719 C1'  U   A  30     -17.994  11.141  -0.696  1.00  0.00     0.255 C 
ATOM    720 O2'  U   A  30     -19.070  11.462  -2.812  1.00  0.00    -0.386 OA
ATOM    721 O5'  U   A  30     -21.092  10.589   1.770  1.00  0.00    -0.316 OA
ATOM    722  N1  U   A  30     -17.293  10.087   0.086  1.00  0.00    -0.271 N 
ATOM    723 HO2' U   A  30     -19.163  12.387  -2.472  1.00  0.00     0.211 HD
ATOM    724  P   U   A  30     -20.798  10.345   3.318  1.00  0.00     0.267 P 
ATOM    725  C2  U   A  30     -15.912  10.042   0.043  1.00  0.00     0.330 A 
ATOM    726  C6  U   A  30     -17.986   9.166   0.843  1.00  0.00     0.099 A 
ATOM    727 OP1  U   A  30     -21.629   9.208   3.788  1.00  0.00    -0.276 OA
ATOM    728 OP2  U   A  30     -19.322  10.292   3.492  1.00  0.00    -0.756 OA
ATOM    729  O2  U   A  30     -15.251  10.833  -0.604  1.00  0.00    -0.248 OA
ATOM    730  N3  U   A  30     -15.334   9.047   0.798  1.00  0.00    -0.274 N 
ATOM    731  C5  U   A  30     -17.414   8.201   1.560  1.00  0.00     0.090 A 
ATOM    732  H3  U   A  30     -14.305   9.002   0.792  1.00  0.00     0.175 HD
ATOM    733  C4  U   A  30     -15.994   8.098   1.566  1.00  0.00     0.253 A 
ATOM    734  O4  U   A  30     -15.370   7.246   2.195  1.00  0.00    -0.269 OA
ATOM    735 O3'  A   A  31     -20.377   7.472  -7.421  1.00  0.00    -0.309 OA
ATOM    736 C3'  A   A  31     -20.536   7.670  -6.024  1.00  0.00     0.192 C 
ATOM    737 C4'  A   A  31     -20.442   9.166  -5.707  1.00  0.00     0.179 C 
ATOM    738 C2'  A   A  31     -19.313   7.091  -5.327  1.00  0.00     0.196 C 
ATOM    739 C5'  A   A  31     -21.350   9.637  -4.607  1.00  0.00     0.204 C 
ATOM    740 O4'  A   A  31     -19.059   9.407  -5.314  1.00  0.00    -0.347 OA
ATOM    741 C1'  A   A  31     -18.317   8.227  -5.520  1.00  0.00     0.253 C 
ATOM    742 O2'  A   A  31     -18.842   5.879  -5.883  1.00  0.00    -0.386 OA
ATOM    743 O5'  A   A  31     -21.259   8.765  -3.485  1.00  0.00    -0.316 OA
ATOM    744  N9  A   A  31     -17.155   8.182  -4.638  1.00  0.00    -0.285 N 
ATOM    745 HO2' A   A  31     -18.599   5.254  -5.155  1.00  0.00     0.211 HD
ATOM    746  P   A   A  31     -22.043   9.061  -2.134  1.00  0.00     0.267 P 
ATOM    747  C8  A   A  31     -16.901   7.295  -3.625  1.00  0.00     0.204 A 
ATOM    748  C4  A   A  31     -16.047   8.983  -4.727  1.00  0.00     0.167 A 
ATOM    749 OP1  A   A  31     -23.490   9.187  -2.466  1.00  0.00    -0.276 OA
ATOM    750 OP2  A   A  31     -21.607   8.041  -1.146  1.00  0.00    -0.755 OA
ATOM    751  N7  A   A  31     -15.744   7.478  -3.039  1.00  0.00    -0.231 NA
ATOM    752  C5  A   A  31     -15.193   8.554  -3.734  1.00  0.00     0.150 A 
ATOM    753  N3  A   A  31     -15.852   9.989  -5.591  1.00  0.00    -0.216 NA
ATOM    754  C6  A   A  31     -13.967   9.239  -3.611  1.00  0.00     0.155 A 
ATOM    755  C2  A   A  31     -14.672  10.563  -5.370  1.00  0.00     0.226 A 
ATOM    756  N1  A   A  31     -13.740  10.260  -4.466  1.00  0.00    -0.217 NA
ATOM    757  N6  A   A  31     -13.026   8.954  -2.699  1.00  0.00    -0.382 N 
ATOM    758 H61  A   A  31     -13.171   8.181  -2.034  1.00  0.00     0.158 HD
ATOM    759 H62  A   A  31     -12.158   9.508  -2.664  1.00  0.00     0.158 HD
ATOM    760 O3'  G   A  32     -25.578  11.476  -9.328  1.00  0.00    -0.309 OA
ATOM    761 C3'  G   A  32     -24.245  11.693  -8.921  1.00  0.00     0.192 C 
ATOM    762 C4'  G   A  32     -23.708  10.568  -8.063  1.00  0.00     0.179 C 
ATOM    763 C2'  G   A  32     -24.054  12.897  -8.019  1.00  0.00     0.196 C 
ATOM    764 C5'  G   A  32     -23.351   9.317  -8.818  1.00  0.00     0.204 C 
ATOM    765 O4'  G   A  32     -22.550  11.165  -7.409  1.00  0.00    -0.347 OA
ATOM    766 C1'  G   A  32     -22.686  12.577  -7.403  1.00  0.00     0.253 C 
ATOM    767 O2'  G   A  32     -25.033  12.897  -6.994  1.00  0.00    -0.385 OA
ATOM    768 O5'  G   A  32     -22.020   8.918  -8.590  1.00  0.00    -0.316 OA
ATOM    769  N9  G   A  32     -21.602  13.167  -8.220  1.00  0.00    -0.285 N 
ATOM    770 HO2' G   A  32     -25.261  11.964  -6.755  1.00  0.00     0.211 HD
ATOM    771  P   G   A  32     -21.677   7.390  -8.348  1.00  0.00     0.267 P 
ATOM    772  C8  G   A  32     -20.593  12.501  -8.879  1.00  0.00     0.204 A 
ATOM    773  C4  G   A  32     -21.424  14.507  -8.520  1.00  0.00     0.171 A 
ATOM    774 OP1  G   A  32     -22.761   6.803  -7.526  1.00  0.00    -0.276 OA
ATOM    775 OP2  G   A  32     -21.313   6.783  -9.653  1.00  0.00    -0.755 OA
ATOM    776  N7  G   A  32     -19.787  13.286  -9.547  1.00  0.00    -0.229 NA
ATOM    777  C5  G   A  32     -20.300  14.557  -9.329  1.00  0.00     0.173 A 
ATOM    778  N3  G   A  32     -22.194  15.541  -8.090  1.00  0.00    -0.195 NA
ATOM    779  C6  G   A  32     -19.837  15.815  -9.801  1.00  0.00     0.280 A 
ATOM    780  C2  G   A  32     -21.758  16.713  -8.544  1.00  0.00     0.202 A 
ATOM    781  N1  G   A  32     -20.647  16.863  -9.354  1.00  0.00    -0.291 N 
ATOM    782  O6  G   A  32     -18.857  16.044 -10.530  1.00  0.00    -0.267 OA
ATOM    783  N2  G   A  32     -22.407  17.847  -8.219  1.00  0.00    -0.368 N 
ATOM    784  H1  G   A  32     -20.398  17.818  -9.650  1.00  0.00     0.173 HD
ATOM    785 H21  G   A  32     -22.068  18.753  -8.571  1.00  0.00     0.159 HD
ATOM    786 H22  G   A  32     -23.243  17.808  -7.618  1.00  0.00     0.159 HD
ATOM    787 O3'  G   A  33     -28.520  16.149 -11.803  1.00  0.00    -0.309 OA
ATOM    788 C3'  G   A  33     -27.172  16.058 -11.386  1.00  0.00     0.192 C 
ATOM    789 C4'  G   A  33     -27.016  15.435 -10.009  1.00  0.00     0.179 C 
ATOM    790 C2'  G   A  33     -26.490  17.408 -11.215  1.00  0.00     0.196 C 
ATOM    791 C5'  G   A  33     -27.115  13.934  -9.948  1.00  0.00     0.204 C 
ATOM    792 O4'  G   A  33     -25.695  15.861  -9.596  1.00  0.00    -0.347 OA
ATOM    793 C1'  G   A  33     -25.332  17.042 -10.288  1.00  0.00     0.253 C 
ATOM    794 O2'  G   A  33     -27.337  18.315 -10.525  1.00  0.00    -0.385 OA
ATOM    795 O5'  G   A  33     -26.242  13.319 -10.885  1.00  0.00    -0.316 OA
ATOM    796  N9  G   A  33     -24.079  16.808 -11.031  1.00  0.00    -0.285 N 
ATOM    797 HO2' G   A  33     -27.224  18.194  -9.549  1.00  0.00     0.211 HD
ATOM    798  P   G   A  33     -25.991  11.745 -10.850  1.00  0.00     0.267 P 
ATOM    799  C8  G   A  33     -23.482  15.598 -11.291  1.00  0.00     0.204 A 
ATOM    800  C4  G   A  33     -23.271  17.771 -11.597  1.00  0.00     0.171 A 
ATOM    801 OP1  G   A  33     -27.266  11.023 -11.095  1.00  0.00    -0.276 OA
ATOM    802 OP2  G   A  33     -24.828  11.417 -11.722  1.00  0.00    -0.755 OA
ATOM    803  N7  G   A  33     -22.371  15.702 -11.972  1.00  0.00    -0.229 NA
ATOM    804  C5  G   A  33     -22.223  17.069 -12.171  1.00  0.00     0.173 A 
ATOM    805  N3  G   A  33     -23.484  19.111 -11.584  1.00  0.00    -0.195 NA
ATOM    806  C6  G   A  33     -21.196  17.781 -12.847  1.00  0.00     0.280 A 
ATOM    807  C2  G   A  33     -22.518  19.765 -12.222  1.00  0.00     0.202 A 
ATOM    808  N1  G   A  33     -21.431  19.157 -12.818  1.00  0.00    -0.291 N 
ATOM    809  O6  G   A  33     -20.193  17.321 -13.417  1.00  0.00    -0.267 OA
ATOM    810  N2  G   A  33     -22.557  21.105 -12.309  1.00  0.00    -0.368 N 
ATOM    811  H1  G   A  33     -20.739  19.766 -13.277  1.00  0.00     0.173 HD
ATOM    812 H21  G   A  33     -21.808  21.611 -12.803  1.00  0.00     0.159 HD
ATOM    813 H22  G   A  33     -23.336  21.626 -11.881  1.00  0.00     0.159 HD
ATOM    814 O3'  A   A  34     -29.217  20.483 -16.173  1.00  0.00    -0.309 OA
ATOM    815 C3'  A   A  34     -28.077  20.112 -15.426  1.00  0.00     0.192 C 
ATOM    816 C4'  A   A  34     -28.335  20.008 -13.936  1.00  0.00     0.179 C 
ATOM    817 C2'  A   A  34     -26.940  21.118 -15.485  1.00  0.00     0.196 C 
ATOM    818 C5'  A   A  34     -29.040  18.758 -13.467  1.00  0.00     0.204 C 
ATOM    819 O4'  A   A  34     -27.004  20.086 -13.355  1.00  0.00    -0.347 OA
ATOM    820 C1'  A   A  34     -26.110  20.668 -14.288  1.00  0.00     0.253 C 
ATOM    821 O2'  A   A  34     -27.423  22.427 -15.219  1.00  0.00    -0.386 OA
ATOM    822 O5'  A   A  34     -28.373  17.572 -13.882  1.00  0.00    -0.316 OA
ATOM    823  N9  A   A  34     -25.116  19.650 -14.684  1.00  0.00    -0.285 N 
ATOM    824 HO2' A   A  34     -27.475  22.567 -14.240  1.00  0.00     0.211 HD
ATOM    825  P   A   A  34     -28.864  16.141 -13.369  1.00  0.00     0.267 P 
ATOM    826  C8  A   A  34     -25.199  18.290 -14.512  1.00  0.00     0.204 A 
ATOM    827  C4  A   A  34     -23.917  19.874 -15.328  1.00  0.00     0.167 A 
ATOM    828 OP1  A   A  34     -30.343  16.050 -13.468  1.00  0.00    -0.276 OA
ATOM    829 OP2  A   A  34     -28.021  15.114 -14.037  1.00  0.00    -0.755 OA
ATOM    830  N7  A   A  34     -24.161  17.635 -14.976  1.00  0.00    -0.231 NA
ATOM    831  C5  A   A  34     -23.335  18.626 -15.497  1.00  0.00     0.150 A 
ATOM    832  N3  A   A  34     -23.396  21.055 -15.716  1.00  0.00    -0.216 NA
ATOM    833  C6  A   A  34     -22.075  18.581 -16.137  1.00  0.00     0.155 A 
ATOM    834  C2  A   A  34     -22.209  20.885 -16.305  1.00  0.00     0.226 A 
ATOM    835  N1  A   A  34     -21.529  19.752 -16.540  1.00  0.00    -0.217 NA
ATOM    836  N6  A   A  34     -21.395  17.454 -16.372  1.00  0.00    -0.382 N 
ATOM    837 H61  A   A  34     -21.784  16.547 -16.077  1.00  0.00     0.158 HD
ATOM    838 H62  A   A  34     -20.482  17.493 -16.848  1.00  0.00     0.158 HD
ATOM    839 O3'  C   A  35     -27.831  22.348 -21.737  1.00  0.00    -0.309 OA
ATOM    840 C3'  C   A  35     -27.061  21.803 -20.684  1.00  0.00     0.192 C 
ATOM    841 C4'  C   A  35     -27.389  22.382 -19.319  1.00  0.00     0.179 C 
ATOM    842 C2'  C   A  35     -25.576  22.101 -20.806  1.00  0.00     0.196 C 
ATOM    843 C5'  C   A  35     -28.651  21.886 -18.656  1.00  0.00     0.204 C 
ATOM    844 O4'  C   A  35     -26.223  22.038 -18.522  1.00  0.00    -0.346 OA
ATOM    845 C1'  C   A  35     -25.109  21.838 -19.375  1.00  0.00     0.255 C 
ATOM    846 O2'  C   A  35     -25.374  23.477 -21.095  1.00  0.00    -0.386 OA
ATOM    847 O5'  C   A  35     -28.720  20.467 -18.646  1.00  0.00    -0.316 OA
ATOM    848  N1  C   A  35     -24.587  20.456 -19.208  1.00  0.00    -0.270 N 
ATOM    849 HO2' C   A  35     -25.299  23.985 -20.248  1.00  0.00     0.211 HD
ATOM    850  P   C   A  35     -29.558  19.694 -17.528  1.00  0.00     0.267 P 
ATOM    851  C2  C   A  35     -23.255  20.190 -19.565  1.00  0.00     0.351 A 
ATOM    852  C6  C   A  35     -25.370  19.439 -18.732  1.00  0.00     0.097 A 
ATOM    853 OP1  C   A  35     -31.014  19.828 -17.782  1.00  0.00    -0.276 OA
ATOM    854 OP2  C   A  35     -28.969  18.333 -17.433  1.00  0.00    -0.755 OA
ATOM    855  O2  C   A  35     -22.550  21.115 -20.003  1.00  0.00    -0.246 OA
ATOM    856  N3  C   A  35     -22.758  18.936 -19.422  1.00  0.00    -0.176 NA
ATOM    857  C5  C   A  35     -24.889  18.194 -18.589  1.00  0.00     0.065 A 
ATOM    858  C4  C   A  35     -23.533  17.955 -18.953  1.00  0.00     0.130 A 
ATOM    859  N4  C   A  35     -23.008  16.729 -18.821  1.00  0.00    -0.383 N 
ATOM    860 H41  C   A  35     -23.587  15.957 -18.461  1.00  0.00     0.158 HD
ATOM    861 H42  C   A  35     -22.026  16.559 -19.079  1.00  0.00     0.158 HD
ATOM    862 O3'  G   A  36     -24.743  19.777 -26.652  1.00  0.00    -0.309 OA
ATOM    863 C3'  G   A  36     -24.824  19.477 -25.268  1.00  0.00     0.192 C 
ATOM    864 C4'  G   A  36     -24.791  20.723 -24.397  1.00  0.00     0.179 C 
ATOM    865 C2'  G   A  36     -23.638  18.670 -24.744  1.00  0.00     0.196 C 
ATOM    866 C5'  G   A  36     -26.098  21.467 -24.243  1.00  0.00     0.204 C 
ATOM    867 O4'  G   A  36     -24.341  20.237 -23.103  1.00  0.00    -0.347 OA
ATOM    868 C1'  G   A  36     -23.689  18.994 -23.253  1.00  0.00     0.253 C 
ATOM    869 O2'  G   A  36     -22.416  19.171 -25.261  1.00  0.00    -0.385 OA
ATOM    870 O5'  G   A  36     -27.047  20.711 -23.500  1.00  0.00    -0.316 OA
ATOM    871  N9  G   A  36     -24.451  17.985 -22.498  1.00  0.00    -0.285 N 
ATOM    872 HO2' G   A  36     -21.817  19.417 -24.512  1.00  0.00     0.211 HD
ATOM    873  P   G   A  36     -28.367  21.384 -22.903  1.00  0.00     0.267 P 
ATOM    874  C8  G   A  36     -25.726  18.131 -22.011  1.00  0.00     0.204 A 
ATOM    875  C4  G   A  36     -24.033  16.728 -22.134  1.00  0.00     0.171 A 
ATOM    876 OP1  G   A  36     -28.996  22.230 -23.949  1.00  0.00    -0.276 OA
ATOM    877 OP2  G   A  36     -29.156  20.314 -22.233  1.00  0.00    -0.755 OA
ATOM    878  N7  G   A  36     -26.154  17.078 -21.373  1.00  0.00    -0.229 NA
ATOM    879  C5  G   A  36     -25.097  16.179 -21.442  1.00  0.00     0.173 A 
ATOM    880  N3  G   A  36     -22.832  16.178 -22.414  1.00  0.00    -0.195 NA
ATOM    881  C6  G   A  36     -24.979  14.858 -20.926  1.00  0.00     0.280 A 
ATOM    882  C2  G   A  36     -22.742  14.949 -21.927  1.00  0.00     0.202 A 
ATOM    883  N1  G   A  36     -23.738  14.313 -21.228  1.00  0.00    -0.291 N 
ATOM    884  O6  G   A  36     -25.797  14.189 -20.279  1.00  0.00    -0.267 OA
ATOM    885  N2  G   A  36     -21.626  14.231 -22.099  1.00  0.00    -0.368 N 
ATOM    886  H1  G   A  36     -23.550  13.355 -20.901  1.00  0.00     0.173 HD
ATOM    887 H21  G   A  36     -21.564  13.276 -21.717  1.00  0.00     0.159 HD
ATOM    888 H22  G   A  36     -20.829  14.633 -22.613  1.00  0.00     0.159 HD
ATOM    889 O3'  A   A  37     -21.578  17.592 -31.300  1.00  0.00    -0.309 OA
ATOM    890 C3'  A   A  37     -21.508  17.398 -29.905  1.00  0.00     0.192 C 
ATOM    891 C4'  A   A  37     -21.565  18.702 -29.122  1.00  0.00     0.179 C 
ATOM    892 C2'  A   A  37     -20.193  16.789 -29.440  1.00  0.00     0.196 C 
ATOM    893 C5'  A   A  37     -22.941  19.289 -28.920  1.00  0.00     0.204 C 
ATOM    894 O4'  A   A  37     -20.970  18.365 -27.841  1.00  0.00    -0.347 OA
ATOM    895 C1'  A   A  37     -20.191  17.188 -27.966  1.00  0.00     0.253 C 
ATOM    896 O2'  A   A  37     -19.092  17.417 -30.080  1.00  0.00    -0.386 OA
ATOM    897 O5'  A   A  37     -23.866  18.299 -28.491  1.00  0.00    -0.316 OA
ATOM    898  N9  A   A  37     -20.793  16.133 -27.131  1.00  0.00    -0.285 N 
ATOM    899 HO2' A   A  37     -18.471  17.771 -29.396  1.00  0.00     0.211 HD
ATOM    900  P   A   A  37     -25.219  18.707 -27.755  1.00  0.00     0.267 P 
ATOM    901  C8  A   A  37     -22.047  16.117 -26.573  1.00  0.00     0.204 A 
ATOM    902  C4  A   A  37     -20.202  14.946 -26.780  1.00  0.00     0.167 A 
ATOM    903 OP1  A   A  37     -26.077  19.418 -28.741  1.00  0.00    -0.276 OA
ATOM    904 OP2  A   A  37     -25.733  17.503 -27.050  1.00  0.00    -0.755 OA
ATOM    905  N7  A   A  37     -22.305  15.032 -25.890  1.00  0.00    -0.231 NA
ATOM    906  C5  A   A  37     -21.140  14.282 -26.013  1.00  0.00     0.150 A 
ATOM    907  N3  A   A  37     -18.966  14.515 -27.102  1.00  0.00    -0.216 NA
ATOM    908  C6  A   A  37     -20.768  13.019 -25.514  1.00  0.00     0.155 A 
ATOM    909  C2  A   A  37     -18.737  13.313 -26.574  1.00  0.00     0.226 A 
ATOM    910  N1  A   A  37     -19.537  12.552 -25.816  1.00  0.00    -0.217 NA
ATOM    911  N6  A   A  37     -21.571  12.270 -24.763  1.00  0.00    -0.382 N 
ATOM    912 H61  A   A  37     -22.514  12.608 -24.521  1.00  0.00     0.158 HD
ATOM    913 H62  A   A  37     -21.250  11.352 -24.423  1.00  0.00     0.158 HD
ATOM    914 O3'  A   A  38     -20.953  12.180 -34.090  1.00  0.00    -0.309 OA
ATOM    915 C3'  A   A  38     -21.069  12.638 -32.753  1.00  0.00     0.192 C 
ATOM    916 C4'  A   A  38     -20.171  13.830 -32.465  1.00  0.00     0.179 C 
ATOM    917 C2'  A   A  38     -20.608  11.616 -31.727  1.00  0.00     0.196 C 
ATOM    918 C5'  A   A  38     -20.731  15.168 -32.856  1.00  0.00     0.204 C 
ATOM    919 O4'  A   A  38     -19.988  13.797 -31.024  1.00  0.00    -0.347 OA
ATOM    920 C1'  A   A  38     -20.295  12.513 -30.531  1.00  0.00     0.253 C 
ATOM    921 O2'  A   A  38     -19.396  11.020 -32.157  1.00  0.00    -0.386 OA
ATOM    922 O5'  A   A  38     -22.029  15.343 -32.308  1.00  0.00    -0.316 OA
ATOM    923  N9  A   A  38     -21.428  12.645 -29.591  1.00  0.00    -0.285 N 
ATOM    924 HO2' A   A  38     -18.860  10.756 -31.368  1.00  0.00     0.211 HD
ATOM    925  P   A   A  38     -22.666  16.793 -32.162  1.00  0.00     0.267 P 
ATOM    926  C8  A   A  38     -22.245  13.741 -29.443  1.00  0.00     0.204 A 
ATOM    927  C4  A   A  38     -21.864  11.725 -28.661  1.00  0.00     0.167 A 
ATOM    928 OP1  A   A  38     -22.705  17.410 -33.517  1.00  0.00    -0.276 OA
ATOM    929 OP2  A   A  38     -23.912  16.698 -31.357  1.00  0.00    -0.755 OA
ATOM    930  N7  A   A  38     -23.161  13.597 -28.515  1.00  0.00    -0.231 NA
ATOM    931  C5  A   A  38     -22.934  12.321 -28.012  1.00  0.00     0.150 A 
ATOM    932  N3  A   A  38     -21.367  10.496 -28.427  1.00  0.00    -0.216 NA
ATOM    933  C6  A   A  38     -23.574  11.575 -27.000  1.00  0.00     0.155 A 
ATOM    934  C2  A   A  38     -22.053   9.891 -27.452  1.00  0.00     0.226 A 
ATOM    935  N1  A   A  38     -23.102  10.331 -26.738  1.00  0.00    -0.217 NA
ATOM    936  N6  A   A  38     -24.613  12.029 -26.287  1.00  0.00    -0.382 N 
ATOM    937 H61  A   A  38     -24.989  12.971 -26.468  1.00  0.00     0.158 HD
ATOM    938 H62  A   A  38     -25.036  11.436 -25.558  1.00  0.00     0.158 HD
ATOM    939 O3'  A   A  39     -23.505   6.643 -34.409  1.00  0.00    -0.309 OA
ATOM    940 C3'  A   A  39     -23.397   7.672 -33.442  1.00  0.00     0.192 C 
ATOM    941 C4'  A   A  39     -21.978   8.207 -33.317  1.00  0.00     0.179 C 
ATOM    942 C2'  A   A  39     -23.716   7.214 -32.026  1.00  0.00     0.196 C 
ATOM    943 C5'  A   A  39     -21.596   9.262 -34.321  1.00  0.00     0.204 C 
ATOM    944 O4'  A   A  39     -21.925   8.773 -31.982  1.00  0.00    -0.347 OA
ATOM    945 C1'  A   A  39     -22.990   8.273 -31.199  1.00  0.00     0.253 C 
ATOM    946 O2'  A   A  39     -23.111   5.958 -31.759  1.00  0.00    -0.386 OA
ATOM    947 O5'  A   A  39     -22.590  10.273 -34.389  1.00  0.00    -0.316 OA
ATOM    948  N9  A   A  39     -23.868   9.403 -30.824  1.00  0.00    -0.285 N 
ATOM    949 HO2' A   A  39     -23.047   5.824 -30.780  1.00  0.00     0.211 HD
ATOM    950  P   A   A  39     -22.252  11.732 -34.930  1.00  0.00     0.267 P 
ATOM    951  C8  A   A  39     -23.972  10.627 -31.448  1.00  0.00     0.204 A 
ATOM    952  C4  A   A  39     -24.737   9.466 -29.762  1.00  0.00     0.167 A 
ATOM    953 OP1  A   A  39     -21.855  11.613 -36.363  1.00  0.00    -0.276 OA
ATOM    954 OP2  A   A  39     -23.386  12.603 -34.535  1.00  0.00    -0.755 OA
ATOM    955  N7  A   A  39     -24.828  11.447 -30.885  1.00  0.00    -0.231 NA
ATOM    956  C5  A   A  39     -25.323  10.724 -29.806  1.00  0.00     0.150 A 
ATOM    957  N3  A   A  39     -24.968   8.500 -28.858  1.00  0.00    -0.216 NA
ATOM    958  C6  A   A  39     -26.269  11.029 -28.800  1.00  0.00     0.155 A 
ATOM    959  C2  A   A  39     -25.871   8.900 -27.967  1.00  0.00     0.226 A 
ATOM    960  N1  A   A  39     -26.519  10.068 -27.881  1.00  0.00    -0.217 NA
ATOM    961  N6  A   A  39     -26.936  12.191 -28.684  1.00  0.00    -0.382 N 
ATOM    962 H61  A   A  39     -26.774  12.948 -29.364  1.00  0.00     0.158 HD
ATOM    963 H62  A   A  39     -27.609  12.324 -27.916  1.00  0.00     0.158 HD
ATOM    964 O3'  C   A  40     -28.799   3.310 -33.644  1.00  0.00    -0.309 OA
ATOM    965 C3'  C   A  40     -28.162   4.377 -32.955  1.00  0.00     0.192 C 
ATOM    966 C4'  C   A  40     -26.668   4.159 -32.746  1.00  0.00     0.179 C 
ATOM    967 C2'  C   A  40     -28.662   4.558 -31.531  1.00  0.00     0.196 C 
ATOM    968 C5'  C   A  40     -25.763   4.470 -33.915  1.00  0.00     0.204 C 
ATOM    969 O4'  C   A  40     -26.344   5.043 -31.636  1.00  0.00    -0.346 OA
ATOM    970 C1'  C   A  40     -27.513   5.355 -30.913  1.00  0.00     0.255 C 
ATOM    971 O2'  C   A  40     -28.716   3.301 -30.875  1.00  0.00    -0.386 OA
ATOM    972 O5'  C   A  40     -25.891   5.825 -34.319  1.00  0.00    -0.316 OA
ATOM    973  N1  C   A  40     -27.745   6.818 -30.984  1.00  0.00    -0.270 N 
ATOM    974 HO2' C   A  40     -28.710   3.440 -29.895  1.00  0.00     0.211 HD
ATOM    975  P   C   A  40     -24.837   6.505 -35.298  1.00  0.00     0.267 P 
ATOM    976  C2  C   A  40     -28.454   7.433 -29.944  1.00  0.00     0.351 A 
ATOM    977  C6  C   A  40     -27.281   7.571 -32.033  1.00  0.00     0.097 A 
ATOM    978 OP1  C   A  40     -24.565   5.546 -36.400  1.00  0.00    -0.276 OA
ATOM    979 OP2  C   A  40     -25.301   7.884 -35.596  1.00  0.00    -0.755 OA
ATOM    980  O2  C   A  40     -28.868   6.745 -28.994  1.00  0.00    -0.246 OA
ATOM    981  N3  C   A  40     -28.672   8.768 -29.993  1.00  0.00    -0.176 NA
ATOM    982  C5  C   A  40     -27.491   8.895 -32.099  1.00  0.00     0.065 A 
ATOM    983  C4  C   A  40     -28.217   9.491 -31.024  1.00  0.00     0.130 A 
ATOM    984  N4  C   A  40     -28.468  10.807 -31.024  1.00  0.00    -0.383 N 
ATOM    985 H41  C   A  40     -28.134  11.395 -31.801  1.00  0.00     0.158 HD
ATOM    986 H42  C   A  40     -28.995  11.231 -30.247  1.00  0.00     0.158 HD
ATOM    987 O3'  G   A  41     -34.919   3.206 -32.680  1.00  0.00    -0.309 OA
ATOM    988 C3'  G   A  41     -33.885   4.076 -32.239  1.00  0.00     0.192 C 
ATOM    989 C4'  G   A  41     -32.692   3.346 -31.641  1.00  0.00     0.179 C 
ATOM    990 C2'  G   A  41     -34.304   5.011 -31.111  1.00  0.00     0.196 C 
ATOM    991 C5'  G   A  41     -31.701   2.802 -32.628  1.00  0.00     0.204 C 
ATOM    992 O4'  G   A  41     -32.039   4.355 -30.833  1.00  0.00    -0.347 OA
ATOM    993 C1'  G   A  41     -32.955   5.377 -30.503  1.00  0.00     0.253 C 
ATOM    994 O2'  G   A  41     -35.043   4.310 -30.131  1.00  0.00    -0.385 OA
ATOM    995 O5'  G   A  41     -31.258   3.834 -33.493  1.00  0.00    -0.316 OA
ATOM    996  N9  G   A  41     -32.447   6.653 -31.025  1.00  0.00    -0.285 N 
ATOM    997 HO2' G   A  41     -34.746   4.592 -29.230  1.00  0.00     0.211 HD
ATOM    998  P   G   A  41     -30.103   3.582 -34.551  1.00  0.00     0.267 P 
ATOM    999  C8  G   A  41     -31.435   6.865 -31.934  1.00  0.00     0.204 A 
ATOM   1000  C4  G   A  41     -32.922   7.884 -30.657  1.00  0.00     0.171 A 
ATOM   1001 OP1  G   A  41     -30.461   2.342 -35.286  1.00  0.00    -0.276 OA
ATOM   1002 OP2  G   A  41     -29.877   4.855 -35.294  1.00  0.00    -0.755 OA
ATOM   1003  N7  G   A  41     -31.235   8.134 -32.170  1.00  0.00    -0.229 NA
ATOM   1004  C5  G   A  41     -32.172   8.796 -31.371  1.00  0.00     0.173 A 
ATOM   1005  N3  G   A  41     -33.922   8.106 -29.777  1.00  0.00    -0.195 NA
ATOM   1006  C6  G   A  41     -32.451  10.182 -31.182  1.00  0.00     0.280 A 
ATOM   1007  C2  G   A  41     -34.171   9.401 -29.618  1.00  0.00     0.202 A 
ATOM   1008  N1  G   A  41     -33.483  10.392 -30.271  1.00  0.00    -0.291 N 
ATOM   1009  O6  G   A  41     -31.918  11.170 -31.694  1.00  0.00    -0.267 OA
ATOM   1010  N2  G   A  41     -35.138   9.814 -28.781  1.00  0.00    -0.368 N 
ATOM   1011  H1  G   A  41     -33.750  11.367 -30.072  1.00  0.00     0.173 HD
ATOM   1012 H21  G   A  41     -35.323  10.821 -28.665  1.00  0.00     0.159 HD
ATOM   1013 H22  G   A  41     -35.694   9.124 -28.256  1.00  0.00     0.159 HD
ATOM   1014 O3'  C   A  42     -40.177   6.178 -33.441  1.00  0.00    -0.309 OA
ATOM   1015 C3'  C   A  42     -38.954   6.692 -32.978  1.00  0.00     0.192 C 
ATOM   1016 C4'  C   A  42     -38.382   5.887 -31.834  1.00  0.00     0.179 C 
ATOM   1017 C2'  C   A  42     -39.044   8.096 -32.397  1.00  0.00     0.196 C 
ATOM   1018 C5'  C   A  42     -37.666   4.624 -32.236  1.00  0.00     0.204 C 
ATOM   1019 O4'  C   A  42     -37.454   6.806 -31.196  1.00  0.00    -0.346 OA
ATOM   1020 C1'  C   A  42     -37.779   8.137 -31.541  1.00  0.00     0.255 C 
ATOM   1021 O2'  C   A  42     -40.174   8.220 -31.549  1.00  0.00    -0.386 OA
ATOM   1022 O5'  C   A  42     -36.733   4.860 -33.281  1.00  0.00    -0.316 OA
ATOM   1023  N1  C   A  42     -36.643   8.714 -32.291  1.00  0.00    -0.270 N 
ATOM   1024 HO2' C   A  42     -39.882   8.188 -30.604  1.00  0.00     0.211 HD
ATOM   1025  P   C   A  42     -35.879   3.660 -33.892  1.00  0.00     0.267 P 
ATOM   1026  C2  C   A  42     -36.547  10.101 -32.347  1.00  0.00     0.351 A 
ATOM   1027  C6  C   A  42     -35.721   7.917 -32.921  1.00  0.00     0.097 A 
ATOM   1028 OP1  C   A  42     -36.823   2.557 -34.193  1.00  0.00    -0.276 OA
ATOM   1029 OP2  C   A  42     -35.026   4.223 -34.969  1.00  0.00    -0.755 OA
ATOM   1030  O2  C   A  42     -37.411  10.782 -31.766  1.00  0.00    -0.246 OA
ATOM   1031  N3  C   A  42     -35.523  10.654 -33.042  1.00  0.00    -0.176 NA
ATOM   1032  C5  C   A  42     -34.707   8.449 -33.603  1.00  0.00     0.065 A 
ATOM   1033  C4  C   A  42     -34.630   9.870 -33.649  1.00  0.00     0.130 A 
ATOM   1034  N4  C   A  42     -33.633  10.460 -34.308  1.00  0.00    -0.383 N 
ATOM   1035 H41  C   A  42     -32.924   9.888 -34.789  1.00  0.00     0.158 HD
ATOM   1036 H42  C   A  42     -33.571  11.488 -34.336  1.00  0.00     0.158 HD
ATOM   1037 O3'  C   A  43     -41.522  11.179 -37.908  1.00  0.00    -0.309 OA
ATOM   1038 C3'  C   A  43     -40.290  11.056 -37.211  1.00  0.00     0.192 C 
ATOM   1039 C4'  C   A  43     -40.388  10.129 -36.020  1.00  0.00     0.179 C 
ATOM   1040 C2'  C   A  43     -39.819  12.358 -36.570  1.00  0.00     0.196 C 
ATOM   1041 C5'  C   A  43     -40.329   8.644 -36.293  1.00  0.00     0.204 C 
ATOM   1042 O4'  C   A  43     -39.269  10.518 -35.182  1.00  0.00    -0.346 OA
ATOM   1043 C1'  C   A  43     -38.878  11.835 -35.489  1.00  0.00     0.255 C 
ATOM   1044 O2'  C   A  43     -40.895  13.027 -35.930  1.00  0.00    -0.386 OA
ATOM   1045 O5'  C   A  43     -40.634   7.939 -35.105  1.00  0.00    -0.316 OA
ATOM   1046  N1  C   A  43     -37.481  11.806 -35.962  1.00  0.00    -0.270 N 
ATOM   1047 HO2' C   A  43     -40.788  12.960 -34.948  1.00  0.00     0.211 HD
ATOM   1048  P   C   A  43     -40.526   6.352 -34.984  1.00  0.00     0.267 P 
ATOM   1049  C2  C   A  43     -36.760  13.003 -35.961  1.00  0.00     0.351 A 
ATOM   1050  C6  C   A  43     -36.923  10.653 -36.415  1.00  0.00     0.097 A 
ATOM   1051 OP1  C   A  43     -41.865   5.732 -35.168  1.00  0.00    -0.276 OA
ATOM   1052 OP2  C   A  43     -39.361   5.878 -35.783  1.00  0.00    -0.755 OA
ATOM   1053  O2  C   A  43     -37.320  14.032 -35.549  1.00  0.00    -0.246 OA
ATOM   1054  N3  C   A  43     -35.481  13.000 -36.412  1.00  0.00    -0.176 NA
ATOM   1055  C5  C   A  43     -35.661  10.629 -36.866  1.00  0.00     0.065 A 
ATOM   1056  C4  C   A  43     -34.937  11.852 -36.848  1.00  0.00     0.130 A 
ATOM   1057  N4  C   A  43     -33.680  11.867 -37.294  1.00  0.00    -0.383 N 
ATOM   1058 H41  C   A  43     -33.243  10.998 -37.633  1.00  0.00     0.158 HD
ATOM   1059 H42  C   A  43     -33.146  12.748 -37.299  1.00  0.00     0.158 HD
ATOM   1060 O3'  G   B   1     -31.515  21.812 -33.099  1.00  0.00    -0.303 OA
ATOM   1061 C3'  G   B   1     -31.574  21.103 -34.326  1.00  0.00     0.196 C 
ATOM   1062 C2'  G   B   1     -32.985  20.727 -34.748  1.00  0.00     0.200 C 
ATOM   1063 C4'  G   B   1     -31.097  21.936 -35.506  1.00  0.00     0.182 C 
ATOM   1064 C1'  G   B   1     -32.790  20.490 -36.244  1.00  0.00     0.258 C 
ATOM   1065 O2'  G   B   1     -33.862  21.835 -34.601  1.00  0.00    -0.378 OA
ATOM   1066 C5'  G   B   1     -29.605  22.007 -35.711  1.00  0.00     0.195 C 
ATOM   1067 O4'  G   B   1     -31.720  21.304 -36.658  1.00  0.00    -0.340 OA
ATOM   1068  N9  G   B   1     -32.427  19.091 -36.528  1.00  0.00    -0.279 N 
ATOM   1069 HO2' G   B   1     -34.006  22.017 -33.638  1.00  0.00     0.215 HD
ATOM   1070 O5'  G   B   1     -29.059  20.735 -36.031  1.00  0.00    -0.386 OA
ATOM   1071  C8  G   B   1     -31.218  18.639 -36.994  1.00  0.00     0.208 A 
ATOM   1072  C4  G   B   1     -33.215  17.973 -36.356  1.00  0.00     0.174 A 
ATOM   1073 H23  G   B   1     -28.849  20.246 -35.196  1.00  0.00     0.214 HD
ATOM   1074  N7  G   B   1     -31.172  17.340 -37.138  1.00  0.00    -0.224 NA
ATOM   1075  C5  G   B   1     -32.429  16.906 -36.747  1.00  0.00     0.176 A 
ATOM   1076  N3  G   B   1     -34.488  17.959 -35.907  1.00  0.00    -0.191 NA
ATOM   1077  C6  G   B   1     -32.967  15.591 -36.694  1.00  0.00     0.286 A 
ATOM   1078  C2  G   B   1     -34.984  16.734 -35.861  1.00  0.00     0.206 A 
ATOM   1079  N1  G   B   1     -34.281  15.600 -36.221  1.00  0.00    -0.285 N 
ATOM   1080  O6  G   B   1     -32.415  14.521 -36.999  1.00  0.00    -0.262 OA
ATOM   1081  N2  G   B   1     -36.244  16.545 -35.430  1.00  0.00    -0.362 N 
ATOM   1082  H1  G   B   1     -34.762  14.693 -36.134  1.00  0.00     0.176 HD
ATOM   1083 H21  G   B   1     -36.638  15.594 -35.391  1.00  0.00     0.162 HD
ATOM   1084 H22  G   B   1     -36.815  17.351 -35.139  1.00  0.00     0.162 HD
ATOM   1085 O3'  G   B   2     -35.390  20.259 -28.734  1.00  0.00    -0.309 OA
ATOM   1086 C3'  G   B   2     -35.122  19.614 -29.966  1.00  0.00     0.192 C 
ATOM   1087 C4'  G   B   2     -35.173  20.575 -31.143  1.00  0.00     0.179 C 
ATOM   1088 C2'  G   B   2     -36.163  18.570 -30.339  1.00  0.00     0.196 C 
ATOM   1089 C5'  G   B   2     -33.913  21.361 -31.401  1.00  0.00     0.204 C 
ATOM   1090 O4'  G   B   2     -35.450  19.722 -32.281  1.00  0.00    -0.347 OA
ATOM   1091 C1'  G   B   2     -35.973  18.489 -31.846  1.00  0.00     0.253 C 
ATOM   1092 O2'  G   B   2     -37.464  19.090 -30.134  1.00  0.00    -0.385 OA
ATOM   1093 O5'  G   B   2     -32.780  20.506 -31.362  1.00  0.00    -0.316 OA
ATOM   1094  N9  G   B   2     -35.055  17.420 -32.274  1.00  0.00    -0.285 N 
ATOM   1095 HO2' G   B   2     -37.642  19.161 -29.163  1.00  0.00     0.211 HD
ATOM   1096  P   G   B   2     -31.321  21.036 -31.702  1.00  0.00     0.267 P 
ATOM   1097  C8  G   B   2     -33.760  17.572 -32.707  1.00  0.00     0.204 A 
ATOM   1098  C4  G   B   2     -35.364  16.091 -32.406  1.00  0.00     0.171 A 
ATOM   1099 OP1  G   B   2     -30.927  22.037 -30.678  1.00  0.00    -0.276 OA
ATOM   1100 OP2  G   B   2     -30.480  19.830 -31.928  1.00  0.00    -0.755 OA
ATOM   1101  N7  G   B   2     -33.211  16.448 -33.084  1.00  0.00    -0.229 NA
ATOM   1102  C5  G   B   2     -34.211  15.509 -32.898  1.00  0.00     0.173 A 
ATOM   1103  N3  G   B   2     -36.551  15.515 -32.102  1.00  0.00    -0.195 NA
ATOM   1104  C6  G   B   2     -34.203  14.114 -33.140  1.00  0.00     0.280 A 
ATOM   1105  C2  G   B   2     -36.530  14.209 -32.327  1.00  0.00     0.202 A 
ATOM   1106  N1  G   B   2     -35.431  13.540 -32.815  1.00  0.00    -0.291 N 
ATOM   1107  O6  G   B   2     -33.275  13.417 -33.578  1.00  0.00    -0.267 OA
ATOM   1108  N2  G   B   2     -37.616  13.454 -32.076  1.00  0.00    -0.368 N 
ATOM   1109  H1  G   B   2     -35.524  12.523 -32.953  1.00  0.00     0.173 HD
ATOM   1110 H21  G   B   2     -37.590  12.440 -32.254  1.00  0.00     0.159 HD
ATOM   1111 H22  G   B   2     -38.472  13.891 -31.706  1.00  0.00     0.159 HD
ATOM   1112 O3'  C   B   3     -36.435  15.881 -24.497  1.00  0.00    -0.309 OA
ATOM   1113 C3'  C   B   3     -36.250  15.799 -25.896  1.00  0.00     0.192 C 
ATOM   1114 C4'  C   B   3     -37.131  16.752 -26.684  1.00  0.00     0.179 C 
ATOM   1115 C2'  C   B   3     -36.613  14.447 -26.492  1.00  0.00     0.196 C 
ATOM   1116 C5'  C   B   3     -36.686  18.191 -26.732  1.00  0.00     0.204 C 
ATOM   1117 O4'  C   B   3     -37.134  16.190 -28.024  1.00  0.00    -0.346 OA
ATOM   1118 C1'  C   B   3     -36.787  14.820 -27.969  1.00  0.00     0.255 C 
ATOM   1119 O2'  C   B   3     -37.855  13.985 -25.979  1.00  0.00    -0.386 OA
ATOM   1120 O5'  C   B   3     -35.324  18.318 -27.113  1.00  0.00    -0.316 OA
ATOM   1121  N1  C   B   3     -35.521  14.613 -28.714  1.00  0.00    -0.270 N 
ATOM   1122 HO2' C   B   3     -37.828  13.995 -24.989  1.00  0.00     0.211 HD
ATOM   1123  P   C   B   3     -34.688  19.761 -27.378  1.00  0.00     0.267 P 
ATOM   1124  C2  C   B   3     -35.224  13.312 -29.127  1.00  0.00     0.351 A 
ATOM   1125  C6  C   B   3     -34.634  15.629 -28.947  1.00  0.00     0.097 A 
ATOM   1126 OP1  C   B   3     -35.170  20.698 -26.327  1.00  0.00    -0.276 OA
ATOM   1127 OP2  C   B   3     -33.229  19.567 -27.601  1.00  0.00    -0.755 OA
ATOM   1128  O2  C   B   3     -36.045  12.413 -28.877  1.00  0.00    -0.246 OA
ATOM   1129  N3  C   B   3     -34.071  13.068 -29.789  1.00  0.00    -0.176 NA
ATOM   1130  C5  C   B   3     -33.486  15.404 -29.609  1.00  0.00     0.065 A 
ATOM   1131  C4  C   B   3     -33.216  14.066 -30.033  1.00  0.00     0.130 A 
ATOM   1132  N4  C   B   3     -32.086  13.780 -30.696  1.00  0.00    -0.383 N 
ATOM   1133 H41  C   B   3     -31.406  14.526 -30.900  1.00  0.00     0.158 HD
ATOM   1134 H42  C   B   3     -31.898  12.814 -31.001  1.00  0.00     0.158 HD
ATOM   1135 O3'  G   B   4     -34.398  10.991 -21.566  1.00  0.00    -0.309 OA
ATOM   1136 C3'  G   B   4     -34.356  11.242 -22.958  1.00  0.00     0.192 C 
ATOM   1137 C4'  G   B   4     -35.708  11.644 -23.517  1.00  0.00     0.179 C 
ATOM   1138 C2'  G   B   4     -34.020  10.018 -23.792  1.00  0.00     0.196 C 
ATOM   1139 C5'  G   B   4     -36.098  13.078 -23.297  1.00  0.00     0.204 C 
ATOM   1140 O4'  G   B   4     -35.582  11.375 -24.939  1.00  0.00    -0.347 OA
ATOM   1141 C1'  G   B   4     -34.539  10.451 -25.159  1.00  0.00     0.253 C 
ATOM   1142 O2'  G   B   4     -34.802   8.913 -23.365  1.00  0.00    -0.385 OA
ATOM   1143 O5'  G   B   4     -35.055  13.952 -23.695  1.00  0.00    -0.316 OA
ATOM   1144  N9  G   B   4     -33.494  11.103 -25.971  1.00  0.00    -0.285 N 
ATOM   1145 HO2' G   B   4     -34.822   8.885 -22.376  1.00  0.00     0.211 HD
ATOM   1146  P   G   B   4     -35.215  15.525 -23.514  1.00  0.00     0.267 P 
ATOM   1147  C8  G   B   4     -33.277  12.453 -26.160  1.00  0.00     0.204 A 
ATOM   1148  C4  G   B   4     -32.546  10.448 -26.724  1.00  0.00     0.171 A 
ATOM   1149 OP1  G   B   4     -35.672  15.829 -22.131  1.00  0.00    -0.276 OA
ATOM   1150 OP2  G   B   4     -33.953  16.124 -24.005  1.00  0.00    -0.755 OA
ATOM   1151  N7  G   B   4     -32.268  12.705 -26.960  1.00  0.00    -0.229 NA
ATOM   1152  C5  G   B   4     -31.797  11.443 -27.326  1.00  0.00     0.173 A 
ATOM   1153  N3  G   B   4     -32.423   9.107 -26.803  1.00  0.00    -0.195 NA
ATOM   1154  C6  G   B   4     -30.721  11.064 -28.174  1.00  0.00     0.280 A 
ATOM   1155  C2  G   B   4     -31.425   8.758 -27.591  1.00  0.00     0.202 A 
ATOM   1156  N1  G   B   4     -30.616   9.670 -28.241  1.00  0.00    -0.291 N 
ATOM   1157  O6  G   B   4     -29.929  11.786 -28.816  1.00  0.00    -0.267 OA
ATOM   1158  N2  G   B   4     -31.161   7.450 -27.787  1.00  0.00    -0.368 N 
ATOM   1159  H1  G   B   4     -29.864   9.287 -28.831  1.00  0.00     0.173 HD
ATOM   1160 H21  G   B   4     -30.383   7.168 -28.401  1.00  0.00     0.159 HD
ATOM   1161 H22  G   B   4     -31.737   6.733 -27.323  1.00  0.00     0.159 HD
ATOM   1162 O3'  U   B   5     -29.632   7.645 -19.674  1.00  0.00    -0.309 OA
ATOM   1163 C3'  U   B   5     -29.926   8.242 -20.925  1.00  0.00     0.192 C 
ATOM   1164 C4'  U   B   5     -31.350   7.956 -21.362  1.00  0.00     0.179 C 
ATOM   1165 C2'  U   B   5     -29.101   7.673 -22.077  1.00  0.00     0.196 C 
ATOM   1166 C5'  U   B   5     -32.407   8.850 -20.770  1.00  0.00     0.204 C 
ATOM   1167 O4'  U   B   5     -31.322   8.116 -22.798  1.00  0.00    -0.346 OA
ATOM   1168 C1'  U   B   5     -30.004   7.962 -23.277  1.00  0.00     0.255 C 
ATOM   1169 O2'  U   B   5     -28.962   6.265 -21.954  1.00  0.00    -0.386 OA
ATOM   1170 O5'  U   B   5     -32.079  10.216 -20.949  1.00  0.00    -0.316 OA
ATOM   1171  N1  U   B   5     -29.619   9.191 -24.013  1.00  0.00    -0.271 N 
ATOM   1172 HO2' U   B   5     -28.938   6.018 -20.996  1.00  0.00     0.211 HD
ATOM   1173  P   U   B   5     -33.144  11.360 -20.629  1.00  0.00     0.267 P 
ATOM   1174  C2  U   B   5     -28.607   9.090 -24.948  1.00  0.00     0.330 A 
ATOM   1175  C6  U   B   5     -30.253  10.388 -23.785  1.00  0.00     0.099 A 
ATOM   1176 OP1  U   B   5     -33.623  11.214 -19.231  1.00  0.00    -0.276 OA
ATOM   1177 OP2  U   B   5     -32.548  12.650 -21.067  1.00  0.00    -0.756 OA
ATOM   1178  O2  U   B   5     -28.022   8.042 -25.177  1.00  0.00    -0.248 OA
ATOM   1179  N3  U   B   5     -28.303  10.254 -25.610  1.00  0.00    -0.274 N 
ATOM   1180  C5  U   B   5     -29.934  11.510 -24.446  1.00  0.00     0.090 A 
ATOM   1181  H3  U   B   5     -27.553  10.202 -26.314  1.00  0.00     0.175 HD
ATOM   1182  C4  U   B   5     -28.898  11.486 -25.430  1.00  0.00     0.253 A 
ATOM   1183  O4  U   B   5     -28.520  12.444 -26.098  1.00  0.00    -0.269 OA
ATOM   1184 O3'  OMC B   6     -23.283   8.947 -19.032  1.00  0.00    -0.309 OA
ATOM   1185 C3'  OMC B   6     -24.671   9.177 -18.789  1.00  0.00     0.192 C 
ATOM   1186 C4'  OMC B   6     -25.472   8.239 -19.699  1.00  0.00     0.179 C 
ATOM   1187 C2'  OMC B   6     -25.065  10.558 -19.317  1.00  0.00     0.200 C 
ATOM   1188 C5'  OMC B   6     -26.757   7.718 -19.112  1.00  0.00     0.204 C 
ATOM   1189 O4'  OMC B   6     -25.773   9.001 -20.905  1.00  0.00    -0.346 OA
ATOM   1190 C1'  OMC B   6     -25.186  10.281 -20.811  1.00  0.00     0.255 C 
ATOM   1191 O2'  OMC B   6     -24.149  11.604 -19.048  1.00  0.00    -0.374 OA
ATOM   1192 O5'  OMC B   6     -27.611   8.782 -18.709  1.00  0.00    -0.316 OA
ATOM   1193  N1  OMC B   6     -26.018  11.266 -21.513  1.00  0.00    -0.270 N 
ATOM   1194 CM2  OMC B   6     -24.492  12.336 -17.869  1.00  0.00     0.195 C 
ATOM   1195  P   OMC B   6     -29.151   8.526 -18.418  1.00  0.00     0.267 P 
ATOM   1196  C6  OMC B   6     -27.241  11.570 -21.046  1.00  0.00     0.097 A 
ATOM   1197  C2  OMC B   6     -25.500  11.947 -22.639  1.00  0.00     0.351 A 
ATOM   1198 OP1  OMC B   6     -29.257   7.624 -17.208  1.00  0.00    -0.276 OA
ATOM   1199 OP3  OMC B   6     -29.823   9.870 -18.410  1.00  0.00    -0.755 OA
ATOM   1200  C5  OMC B   6     -28.010  12.537 -21.697  1.00  0.00     0.065 A 
ATOM   1201  O2  OMC B   6     -24.358  11.677 -23.071  1.00  0.00    -0.246 OA
ATOM   1202  N3  OMC B   6     -26.249  12.884 -23.262  1.00  0.00    -0.176 NA
ATOM   1203  C4  OMC B   6     -27.488  13.188 -22.810  1.00  0.00     0.130 A 
ATOM   1204  N4  OMC B   6     -28.223  14.129 -23.452  1.00  0.00    -0.383 N 
ATOM   1205 HN41 OMC B   6     -29.167  14.365 -23.113  1.00  0.00     0.158 HD
ATOM   1206 HN42 OMC B   6     -27.838  14.608 -24.279  1.00  0.00     0.158 HD
ATOM   1207 O3'  C   B   7     -23.411   4.819 -16.196  1.00  0.00    -0.309 OA
ATOM   1208 C3'  C   B   7     -22.119   4.769 -16.753  1.00  0.00     0.192 C 
ATOM   1209 C4'  C   B   7     -21.860   5.938 -17.674  1.00  0.00     0.179 C 
ATOM   1210 C2'  C   B   7     -21.860   3.556 -17.638  1.00  0.00     0.196 C 
ATOM   1211 C5'  C   B   7     -21.467   7.205 -16.971  1.00  0.00     0.204 C 
ATOM   1212 O4'  C   B   7     -20.780   5.479 -18.524  1.00  0.00    -0.346 OA
ATOM   1213 C1'  C   B   7     -20.731   4.066 -18.531  1.00  0.00     0.255 C 
ATOM   1214 O2'  C   B   7     -22.981   3.262 -18.458  1.00  0.00    -0.386 OA
ATOM   1215 O5'  C   B   7     -21.174   8.241 -17.889  1.00  0.00    -0.316 OA
ATOM   1216  N1  C   B   7     -19.393   3.646 -18.064  1.00  0.00    -0.270 N 
ATOM   1217 HO2' C   B   7     -23.763   3.057 -17.887  1.00  0.00     0.211 HD
ATOM   1218  P   C   B   7     -22.144   9.496 -18.045  1.00  0.00     0.267 P 
ATOM   1219  C2  C   B   7     -18.997   2.318 -18.226  1.00  0.00     0.351 A 
ATOM   1220  C6  C   B   7     -18.541   4.562 -17.502  1.00  0.00     0.097 A 
ATOM   1221 OP1  C   B   7     -22.727   9.830 -16.718  1.00  0.00    -0.276 OA
ATOM   1222 OP2  C   B   7     -21.360  10.512 -18.799  1.00  0.00    -0.755 OA
ATOM   1223  O2  C   B   7     -19.793   1.515 -18.735  1.00  0.00    -0.246 OA
ATOM   1224  N3  C   B   7     -17.760   1.943 -17.816  1.00  0.00    -0.176 NA
ATOM   1225  C5  C   B   7     -17.318   4.204 -17.084  1.00  0.00     0.065 A 
ATOM   1226  C4  C   B   7     -16.935   2.838 -17.261  1.00  0.00     0.130 A 
ATOM   1227  N4  C   B   7     -15.719   2.422 -16.881  1.00  0.00    -0.383 N 
ATOM   1228 H41  C   B   7     -15.059   3.085 -16.450  1.00  0.00     0.158 HD
ATOM   1229 H42  C   B   7     -15.444   1.439 -17.020  1.00  0.00     0.158 HD
ATOM   1230 O3'  U   B   8     -25.178  -0.232 -13.492  1.00  0.00    -0.309 OA
ATOM   1231 C3'  U   B   8     -24.019   0.020 -14.275  1.00  0.00     0.192 C 
ATOM   1232 C4'  U   B   8     -24.341   0.660 -15.613  1.00  0.00     0.179 C 
ATOM   1233 C2'  U   B   8     -23.282  -1.246 -14.689  1.00  0.00     0.196 C 
ATOM   1234 C5'  U   B   8     -24.586   2.141 -15.581  1.00  0.00     0.204 C 
ATOM   1235 O4'  U   B   8     -23.172   0.372 -16.426  1.00  0.00    -0.346 OA
ATOM   1236 C1'  U   B   8     -22.486  -0.744 -15.893  1.00  0.00     0.255 C 
ATOM   1237 O2'  U   B   8     -24.215  -2.202 -15.157  1.00  0.00    -0.386 OA
ATOM   1238 O5'  U   B   8     -23.615   2.796 -14.777  1.00  0.00    -0.316 OA
ATOM   1239  N1  U   B   8     -21.109  -0.321 -15.541  1.00  0.00    -0.271 N 
ATOM   1240 HO2' U   B   8     -24.648  -2.646 -14.385  1.00  0.00     0.211 HD
ATOM   1241  P   U   B   8     -23.617   4.377 -14.675  1.00  0.00     0.267 P 
ATOM   1242  C2  U   B   8     -20.153  -1.303 -15.491  1.00  0.00     0.330 A 
ATOM   1243  C6  U   B   8     -20.771   0.994 -15.302  1.00  0.00     0.099 A 
ATOM   1244 OP1  U   B   8     -24.987   4.808 -14.254  1.00  0.00    -0.276 OA
ATOM   1245 OP2  U   B   8     -22.417   4.810 -13.912  1.00  0.00    -0.756 OA
ATOM   1246  O2  U   B   8     -20.402  -2.474 -15.688  1.00  0.00    -0.248 OA
ATOM   1247  N3  U   B   8     -18.897  -0.867 -15.184  1.00  0.00    -0.274 N 
ATOM   1248  C5  U   B   8     -19.524   1.388 -15.006  1.00  0.00     0.090 A 
ATOM   1249  H3  U   B   8     -18.168  -1.593 -15.134  1.00  0.00     0.175 HD
ATOM   1250  C4  U   B   8     -18.481   0.420 -14.933  1.00  0.00     0.253 A 
ATOM   1251  O4  U   B   8     -17.285   0.628 -14.685  1.00  0.00    -0.269 OA
ATOM   1252 O3'  G   B   9     -24.096  -3.937  -8.803  1.00  0.00    -0.309 OA
ATOM   1253 C3'  G   B   9     -23.299  -3.623  -9.933  1.00  0.00     0.192 C 
ATOM   1254 C4'  G   B   9     -24.055  -3.806 -11.235  1.00  0.00     0.179 C 
ATOM   1255 C2'  G   B   9     -22.082  -4.519 -10.136  1.00  0.00     0.196 C 
ATOM   1256 C5'  G   B   9     -24.986  -2.684 -11.604  1.00  0.00     0.204 C 
ATOM   1257 O4'  G   B   9     -23.015  -3.923 -12.235  1.00  0.00    -0.347 OA
ATOM   1258 C1'  G   B   9     -21.802  -4.302 -11.625  1.00  0.00     0.253 C 
ATOM   1259 O2'  G   B   9     -22.408  -5.891  -9.926  1.00  0.00    -0.385 OA
ATOM   1260 O5'  G   B   9     -24.361  -1.420 -11.427  1.00  0.00    -0.316 OA
ATOM   1261  N9  G   B   9     -20.849  -3.203 -11.818  1.00  0.00    -0.285 N 
ATOM   1262 HO2' G   B   9     -22.452  -6.075  -8.954  1.00  0.00     0.211 HD
ATOM   1263  P   G   B   9     -25.118  -0.089 -11.883  1.00  0.00     0.267 P 
ATOM   1264  C8  G   B   9     -21.137  -1.880 -12.032  1.00  0.00     0.204 A 
ATOM   1265  C4  G   B   9     -19.491  -3.319 -11.732  1.00  0.00     0.171 A 
ATOM   1266 OP1  G   B   9     -26.521  -0.166 -11.385  1.00  0.00    -0.276 OA
ATOM   1267 OP2  G   B   9     -24.212   1.052 -11.541  1.00  0.00    -0.755 OA
ATOM   1268  N7  G   B   9     -20.060  -1.150 -12.115  1.00  0.00    -0.229 NA
ATOM   1269  C5  G   B   9     -19.012  -2.045 -11.928  1.00  0.00     0.173 A 
ATOM   1270  N3  G   B   9     -18.818  -4.470 -11.506  1.00  0.00    -0.195 NA
ATOM   1271  C6  G   B   9     -17.611  -1.833 -11.906  1.00  0.00     0.280 A 
ATOM   1272  C2  G   B   9     -17.512  -4.260 -11.492  1.00  0.00     0.202 A 
ATOM   1273  N1  G   B   9     -16.920  -3.028 -11.685  1.00  0.00    -0.291 N 
ATOM   1274  O6  G   B   9     -16.991  -0.768 -12.075  1.00  0.00    -0.267 OA
ATOM   1275  N2  G   B   9     -16.690  -5.293 -11.285  1.00  0.00    -0.368 N 
ATOM   1276  H1  G   B   9     -15.891  -2.986 -11.665  1.00  0.00     0.173 HD
ATOM   1277 H21  G   B   9     -15.671  -5.145 -11.271  1.00  0.00     0.159 HD
ATOM   1278 H22  G   B   9     -17.076  -6.237 -11.139  1.00  0.00     0.159 HD
ATOM   1279 O3'  G   B  10     -19.033  -5.275  -4.414  1.00  0.00    -0.309 OA
ATOM   1280 C3'  G   B  10     -18.958  -4.480  -5.585  1.00  0.00     0.192 C 
ATOM   1281 C4'  G   B  10     -20.111  -4.780  -6.528  1.00  0.00     0.179 C 
ATOM   1282 C2'  G   B  10     -17.718  -4.731  -6.436  1.00  0.00     0.196 C 
ATOM   1283 C5'  G   B  10     -21.338  -3.949  -6.265  1.00  0.00     0.204 C 
ATOM   1284 O4'  G   B  10     -19.607  -4.478  -7.850  1.00  0.00    -0.347 OA
ATOM   1285 C1'  G   B  10     -18.206  -4.307  -7.811  1.00  0.00     0.253 C 
ATOM   1286 O2'  G   B  10     -17.405  -6.117  -6.493  1.00  0.00    -0.385 OA
ATOM   1287 O5'  G   B  10     -22.418  -4.393  -7.047  1.00  0.00    -0.316 OA
ATOM   1288  N9  G   B  10     -17.883  -2.899  -8.150  1.00  0.00    -0.285 N 
ATOM   1289 HO2' G   B  10     -17.324  -6.475  -5.574  1.00  0.00     0.211 HD
ATOM   1290  P   G   B  10     -23.654  -3.444  -7.341  1.00  0.00     0.267 P 
ATOM   1291  C8  G   B  10     -18.778  -1.924  -8.536  1.00  0.00     0.204 A 
ATOM   1292  C4  G   B  10     -16.637  -2.313  -8.217  1.00  0.00     0.171 A 
ATOM   1293 OP1  G   B  10     -24.722  -3.793  -6.377  1.00  0.00    -0.276 OA
ATOM   1294 OP2  G   B  10     -23.144  -2.055  -7.434  1.00  0.00    -0.755 OA
ATOM   1295  N7  G   B  10     -18.215  -0.774  -8.822  1.00  0.00    -0.229 NA
ATOM   1296  C5  G   B  10     -16.862  -1.007  -8.623  1.00  0.00     0.173 A 
ATOM   1297  N3  G   B  10     -15.462  -2.922  -7.934  1.00  0.00    -0.195 NA
ATOM   1298  C6  G   B  10     -15.756  -0.131  -8.787  1.00  0.00     0.280 A 
ATOM   1299  C2  G   B  10     -14.450  -2.085  -8.090  1.00  0.00     0.202 A 
ATOM   1300  N1  G   B  10     -14.569  -0.783  -8.493  1.00  0.00    -0.291 N 
ATOM   1301  O6  G   B  10     -15.728   1.058  -9.153  1.00  0.00    -0.267 OA
ATOM   1302  N2  G   B  10     -13.202  -2.473  -7.836  1.00  0.00    -0.368 N 
ATOM   1303  H1  G   B  10     -13.699  -0.239  -8.586  1.00  0.00     0.173 HD
ATOM   1304 H21  G   B  10     -12.422  -1.812  -7.961  1.00  0.00     0.159 HD
ATOM   1305 H22  G   B  10     -13.017  -3.434  -7.514  1.00  0.00     0.159 HD
ATOM   1306 O3'  5BU B  11     -14.428  -4.013  -0.608  1.00  0.00    -0.309 OA
ATOM   1307 C3'  5BU B  11     -14.606  -3.620  -1.952  1.00  0.00     0.192 C 
ATOM   1308 C4'  5BU B  11     -14.858  -4.781  -2.899  1.00  0.00     0.179 C 
ATOM   1309 C2'  5BU B  11     -13.373  -2.966  -2.558  1.00  0.00     0.196 C 
ATOM   1310 C5'  5BU B  11     -16.266  -5.336  -2.892  1.00  0.00     0.204 C 
ATOM   1311 O4'  5BU B  11     -14.550  -4.213  -4.202  1.00  0.00    -0.346 OA
ATOM   1312 C1'  5BU B  11     -13.677  -3.105  -4.046  1.00  0.00     0.255 C 
ATOM   1313 O2'  5BU B  11     -12.209  -3.726  -2.253  1.00  0.00    -0.386 OA
ATOM   1314 O5'  5BU B  11     -17.233  -4.293  -2.935  1.00  0.00    -0.316 OA
ATOM   1315 HO2' 5BU B  11     -12.107  -3.793  -1.271  1.00  0.00     0.211 HD
ATOM   1316  P   5BU B  11     -18.808  -4.598  -2.974  1.00  0.00     0.267 P 
ATOM   1317 OP1  5BU B  11     -19.140  -5.639  -1.939  1.00  0.00    -0.276 OA
ATOM   1318 OP3  5BU B  11     -19.464  -3.225  -3.000  1.00  0.00    -0.755 OA
ATOM   1319 O3'  A   B  12     -11.440   0.431   2.481  1.00  0.00    -0.309 OA
ATOM   1320 C3'  A   B  12     -11.959   0.413   1.160  1.00  0.00     0.192 C 
ATOM   1321 C4'  A   B  12     -11.581  -0.840   0.385  1.00  0.00     0.179 C 
ATOM   1322 C2'  A   B  12     -11.402   1.522   0.283  1.00  0.00     0.196 C 
ATOM   1323 C5'  A   B  12     -12.397  -2.072   0.683  1.00  0.00     0.204 C 
ATOM   1324 O4'  A   B  12     -11.760  -0.451  -1.003  1.00  0.00    -0.347 OA
ATOM   1325 C1'  A   B  12     -11.627   0.953  -1.117  1.00  0.00     0.253 C 
ATOM   1326 O2'  A   B  12     -10.005   1.630   0.480  1.00  0.00    -0.386 OA
ATOM   1327 O5'  A   B  12     -13.776  -1.824   0.479  1.00  0.00    -0.316 OA
ATOM   1328  N9  A   B  12     -12.810   1.519  -1.783  1.00  0.00    -0.285 N 
ATOM   1329 HO2' A   B  12      -9.809   1.645   1.450  1.00  0.00     0.211 HD
ATOM   1330  P   A   B  12     -14.846  -3.002   0.565  1.00  0.00     0.267 P 
ATOM   1331  C8  A   B  12     -14.097   1.036  -1.839  1.00  0.00     0.204 A 
ATOM   1332  C4  A   B  12     -12.798   2.673  -2.541  1.00  0.00     0.167 A 
ATOM   1333 OP1  A   B  12     -14.633  -3.742   1.833  1.00  0.00    -0.276 OA
ATOM   1334 OP2  A   B  12     -16.158  -2.378   0.211  1.00  0.00    -0.755 OA
ATOM   1335  N7  A   B  12     -14.907   1.792  -2.550  1.00  0.00    -0.231 NA
ATOM   1336  C5  A   B  12     -14.084   2.822  -3.007  1.00  0.00     0.150 A 
ATOM   1337  N3  A   B  12     -11.753   3.481  -2.788  1.00  0.00    -0.216 NA
ATOM   1338  C6  A   B  12     -14.330   3.939  -3.810  1.00  0.00     0.155 A 
ATOM   1339  C2  A   B  12     -12.114   4.510  -3.551  1.00  0.00     0.226 A 
ATOM   1340  N1  A   B  12     -13.313   4.788  -4.070  1.00  0.00    -0.217 NA
ATOM   1341  N6  A   B  12     -15.529   4.203  -4.319  1.00  0.00    -0.382 N 
ATOM   1342 H61  A   B  12     -16.319   3.568  -4.133  1.00  0.00     0.158 HD
ATOM   1343 H62  A   B  12     -15.669   5.042  -4.900  1.00  0.00     0.158 HD
ATOM   1344 O3'  U   B  13     -10.751   6.938   3.381  1.00  0.00    -0.309 OA
ATOM   1345 C3'  U   B  13     -11.330   5.649   3.540  1.00  0.00     0.192 C 
ATOM   1346 C4'  U   B  13     -10.610   4.655   2.623  1.00  0.00     0.179 C 
ATOM   1347 C2'  U   B  13     -12.727   5.675   2.945  1.00  0.00     0.196 C 
ATOM   1348 C5'  U   B  13     -10.604   3.243   3.139  1.00  0.00     0.204 C 
ATOM   1349 O4'  U   B  13     -11.328   4.695   1.352  1.00  0.00    -0.346 OA
ATOM   1350 C1'  U   B  13     -12.401   5.611   1.454  1.00  0.00     0.255 C 
ATOM   1351 O2'  U   B  13     -13.499   6.805   3.286  1.00  0.00    -0.386 OA
ATOM   1352 O5'  U   B  13     -11.934   2.760   3.304  1.00  0.00    -0.316 OA
ATOM   1353  N1  U   B  13     -13.529   5.180   0.624  1.00  0.00    -0.271 N 
ATOM   1354 HO2' U   B  13     -13.552   6.883   4.271  1.00  0.00     0.211 HD
ATOM   1355  P   U   B  13     -12.217   1.233   3.641  1.00  0.00     0.267 P 
ATOM   1356  C2  U   B  13     -13.832   6.012  -0.422  1.00  0.00     0.330 A 
ATOM   1357  C6  U   B  13     -14.291   4.064   0.908  1.00  0.00     0.099 A 
ATOM   1358 OP1  U   B  13     -11.559   0.915   4.935  1.00  0.00    -0.276 OA
ATOM   1359 OP2  U   B  13     -13.685   1.038   3.440  1.00  0.00    -0.756 OA
ATOM   1360  O2  U   B  13     -13.165   6.999  -0.659  1.00  0.00    -0.248 OA
ATOM   1361  N3  U   B  13     -14.916   5.636  -1.172  1.00  0.00    -0.274 N 
ATOM   1362  C5  U   B  13     -15.344   3.709   0.163  1.00  0.00     0.090 A 
ATOM   1363  H3  U   B  13     -15.160   6.235  -1.973  1.00  0.00     0.175 HD
ATOM   1364  C4  U   B  13     -15.711   4.529  -0.953  1.00  0.00     0.253 A 
ATOM   1365  O4  U   B  13     -16.648   4.317  -1.716  1.00  0.00    -0.269 OA
ATOM   1366 O3'  C   B  14      -5.383   9.156   2.831  1.00  0.00    -0.309 OA
ATOM   1367 C3'  C   B  14      -6.585   9.889   2.655  1.00  0.00     0.192 C 
ATOM   1368 C4'  C   B  14      -7.571   9.182   1.751  1.00  0.00     0.179 C 
ATOM   1369 C2'  C   B  14      -6.395  11.228   1.951  1.00  0.00     0.196 C 
ATOM   1370 C5'  C   B  14      -8.362   8.083   2.399  1.00  0.00     0.204 C 
ATOM   1371 O4'  C   B  14      -8.462  10.244   1.319  1.00  0.00    -0.346 OA
ATOM   1372 C1'  C   B  14      -7.797  11.478   1.385  1.00  0.00     0.255 C 
ATOM   1373 O2'  C   B  14      -5.501  11.092   0.859  1.00  0.00    -0.386 OA
ATOM   1374 O5'  C   B  14      -8.804   8.477   3.688  1.00  0.00    -0.316 OA
ATOM   1375  N1  C   B  14      -8.601  12.413   2.202  1.00  0.00    -0.270 N 
ATOM   1376 HO2' C   B  14      -4.582  10.952   1.200  1.00  0.00     0.211 HD
ATOM   1377  P   C   B  14      -9.798   7.549   4.516  1.00  0.00     0.267 P 
ATOM   1378  C2  C   B  14      -8.276  13.779   2.178  1.00  0.00     0.351 A 
ATOM   1379  C6  C   B  14      -9.664  11.964   2.931  1.00  0.00     0.097 A 
ATOM   1380 OP1  C   B  14      -8.954   6.467   5.088  1.00  0.00    -0.276 OA
ATOM   1381 OP2  C   B  14     -10.674   8.411   5.363  1.00  0.00    -0.755 OA
ATOM   1382  O2  C   B  14      -7.309  14.180   1.512  1.00  0.00    -0.246 OA
ATOM   1383  N3  C   B  14      -9.019  14.641   2.905  1.00  0.00    -0.176 NA
ATOM   1384  C5  C   B  14     -10.409  12.815   3.654  1.00  0.00     0.065 A 
ATOM   1385  C4  C   B  14     -10.058  14.196   3.619  1.00  0.00     0.130 A 
ATOM   1386  N4  C   B  14     -10.755  15.098   4.318  1.00  0.00    -0.383 N 
ATOM   1387 H41  C   B  14     -11.563  14.800   4.882  1.00  0.00     0.158 HD
ATOM   1388 H42  C   B  14     -10.484  16.091   4.292  1.00  0.00     0.158 HD
ATOM   1389 O3'  C   B  15      -0.719  13.269   4.477  1.00  0.00    -0.309 OA
ATOM   1390 C3'  C   B  15      -1.823  12.395   4.665  1.00  0.00     0.192 C 
ATOM   1391 C4'  C   B  15      -2.535  12.182   3.321  1.00  0.00     0.179 C 
ATOM   1392 C2'  C   B  15      -2.866  13.140   5.487  1.00  0.00     0.196 C 
ATOM   1393 C5'  C   B  15      -3.105  10.810   3.114  1.00  0.00     0.204 C 
ATOM   1394 O4'  C   B  15      -3.615  13.150   3.280  1.00  0.00    -0.346 OA
ATOM   1395 C1'  C   B  15      -3.522  13.989   4.409  1.00  0.00     0.255 C 
ATOM   1396 O2'  C   B  15      -2.329  13.946   6.518  1.00  0.00    -0.386 OA
ATOM   1397 O5'  C   B  15      -3.758  10.369   4.294  1.00  0.00    -0.316 OA
ATOM   1398  N1  C   B  15      -4.845  14.507   4.764  1.00  0.00    -0.270 N 
ATOM   1399 HO2' C   B  15      -2.581  13.568   7.398  1.00  0.00     0.211 HD
ATOM   1400  P   C   B  15      -4.671   9.077   4.274  1.00  0.00     0.267 P 
ATOM   1401  C2  C   B  15      -5.020  15.874   4.558  1.00  0.00     0.351 A 
ATOM   1402  C6  C   B  15      -5.829  13.726   5.301  1.00  0.00     0.097 A 
ATOM   1403 OP1  C   B  15      -3.745   7.920   4.290  1.00  0.00    -0.276 OA
ATOM   1404 OP2  C   B  15      -5.685   9.235   5.345  1.00  0.00    -0.755 OA
ATOM   1405  O2  C   B  15      -4.074  16.519   4.069  1.00  0.00    -0.246 OA
ATOM   1406  N3  C   B  15      -6.208  16.435   4.880  1.00  0.00    -0.176 NA
ATOM   1407  C5  C   B  15      -7.009  14.263   5.627  1.00  0.00     0.065 A 
ATOM   1408  C4  C   B  15      -7.168  15.665   5.397  1.00  0.00     0.130 A 
ATOM   1409  N4  C   B  15      -8.319  16.259   5.697  1.00  0.00    -0.383 N 
ATOM   1410 H41  C   B  15      -9.093  15.710   6.099  1.00  0.00     0.158 HD
ATOM   1411 H42  C   B  15      -8.437  17.268   5.528  1.00  0.00     0.158 HD
ATOM   1412 O3'  A   B  16       3.214  16.629   4.803  1.00  0.00    -0.309 OA
ATOM   1413 C3'  A   B  16       2.250  17.005   3.834  1.00  0.00     0.192 C 
ATOM   1414 C4'  A   B  16       2.019  15.928   2.780  1.00  0.00     0.179 C 
ATOM   1415 C2'  A   B  16       2.692  18.181   2.986  1.00  0.00     0.196 C 
ATOM   1416 C5'  A   B  16       1.069  14.834   3.154  1.00  0.00     0.204 C 
ATOM   1417 O4'  A   B  16       1.474  16.645   1.649  1.00  0.00    -0.347 OA
ATOM   1418 C1'  A   B  16       1.784  18.015   1.766  1.00  0.00     0.253 C 
ATOM   1419 O2'  A   B  16       4.040  17.995   2.569  1.00  0.00    -0.386 OA
ATOM   1420 O5'  A   B  16       1.614  14.011   4.167  1.00  0.00    -0.316 OA
ATOM   1421  N9  A   B  16       0.522  18.766   1.906  1.00  0.00    -0.285 N 
ATOM   1422 HO2' A   B  16       4.623  17.914   3.365  1.00  0.00     0.211 HD
ATOM   1423  P   A   B  16       0.785  12.747   4.650  1.00  0.00     0.267 P 
ATOM   1424  C8  A   B  16      -0.761  18.294   2.107  1.00  0.00     0.204 A 
ATOM   1425  C4  A   B  16       0.430  20.134   1.834  1.00  0.00     0.167 A 
ATOM   1426 OP1  A   B  16       1.004  11.664   3.651  1.00  0.00    -0.276 OA
ATOM   1427 OP2  A   B  16       1.077  12.543   6.099  1.00  0.00    -0.755 OA
ATOM   1428  N7  A   B  16      -1.661  19.259   2.175  1.00  0.00    -0.231 NA
ATOM   1429  C5  A   B  16      -0.910  20.431   2.000  1.00  0.00     0.150 A 
ATOM   1430  N3  A   B  16       1.451  20.990   1.647  1.00  0.00    -0.216 NA
ATOM   1431  C6  A   B  16      -1.252  21.802   1.962  1.00  0.00     0.155 A 
ATOM   1432  C2  A   B  16       0.992  22.237   1.636  1.00  0.00     0.226 A 
ATOM   1433  N1  A   B  16      -0.259  22.694   1.779  1.00  0.00    -0.217 NA
ATOM   1434  N6  A   B  16      -2.496  22.272   2.100  1.00  0.00    -0.382 N 
ATOM   1435 H61  A   B  16      -3.280  21.620   2.242  1.00  0.00     0.158 HD
ATOM   1436 H62  A   B  16      -2.670  23.287   2.065  1.00  0.00     0.158 HD
ATOM   1437 O3'  A   B  17       4.590  22.057   7.835  1.00  0.00    -0.309 OA
ATOM   1438 C3'  A   B  17       3.616  21.588   6.918  1.00  0.00     0.192 C 
ATOM   1439 C4'  A   B  17       4.200  20.643   5.878  1.00  0.00     0.179 C 
ATOM   1440 C2'  A   B  17       3.024  22.695   6.057  1.00  0.00     0.196 C 
ATOM   1441 C5'  A   B  17       4.387  19.209   6.308  1.00  0.00     0.204 C 
ATOM   1442 O4'  A   B  17       3.251  20.714   4.779  1.00  0.00    -0.347 OA
ATOM   1443 C1'  A   B  17       2.483  21.900   4.876  1.00  0.00     0.253 C 
ATOM   1444 O2'  A   B  17       4.053  23.544   5.581  1.00  0.00    -0.386 OA
ATOM   1445 O5'  A   B  17       3.138  18.554   6.458  1.00  0.00    -0.316 OA
ATOM   1446  N9  A   B  17       1.069  21.533   5.088  1.00  0.00    -0.285 N 
ATOM   1447 HO2' A   B  17       4.535  23.941   6.349  1.00  0.00     0.211 HD
ATOM   1448  P   A   B  17       3.017  16.965   6.370  1.00  0.00     0.267 P 
ATOM   1449  C8  A   B  17       0.543  20.278   5.268  1.00  0.00     0.204 A 
ATOM   1450  C4  A   B  17      -0.003  22.397   5.162  1.00  0.00     0.167 A 
ATOM   1451 OP1  A   B  17       4.180  16.348   7.054  1.00  0.00    -0.276 OA
ATOM   1452 OP2  A   B  17       1.641  16.618   6.816  1.00  0.00    -0.755 OA
ATOM   1453  N7  A   B  17      -0.758  20.251   5.448  1.00  0.00    -0.231 NA
ATOM   1454  C5  A   B  17      -1.118  21.593   5.383  1.00  0.00     0.150 A 
ATOM   1455  N3  A   B  17       0.016  23.749   5.052  1.00  0.00    -0.216 NA
ATOM   1456  C6  A   B  17      -2.374  22.236   5.493  1.00  0.00     0.155 A 
ATOM   1457  C2  A   B  17      -1.221  24.251   5.166  1.00  0.00     0.226 A 
ATOM   1458  N1  A   B  17      -2.386  23.589   5.373  1.00  0.00    -0.217 NA
ATOM   1459  N6  A   B  17      -3.534  21.575   5.700  1.00  0.00    -0.382 N 
ATOM   1460 H61  A   B  17      -3.533  20.549   5.792  1.00  0.00     0.158 HD
ATOM   1461 H62  A   B  17      -4.420  22.097   5.766  1.00  0.00     0.158 HD
ATOM   1462 O3'  5BU B  18       2.144  26.509  11.169  1.00  0.00    -0.309 OA
ATOM   1463 C3'  5BU B  18       1.481  25.695  10.219  1.00  0.00     0.192 C 
ATOM   1464 C4'  5BU B  18       2.154  25.717   8.863  1.00  0.00     0.179 C 
ATOM   1465 C2'  5BU B  18       0.054  26.119   9.894  1.00  0.00     0.196 C 
ATOM   1466 C5'  5BU B  18       3.358  24.830   8.751  1.00  0.00     0.204 C 
ATOM   1467 O4'  5BU B  18       1.122  25.248   7.959  1.00  0.00    -0.346 OA
ATOM   1468 C1'  5BU B  18      -0.151  25.437   8.543  1.00  0.00     0.255 C 
ATOM   1469 O2'  5BU B  18      -0.031  27.522   9.686  1.00  0.00    -0.386 OA
ATOM   1470 O5'  5BU B  18       3.049  23.520   9.203  1.00  0.00    -0.316 OA
ATOM   1471  N1  5BU B  18      -0.795  24.119   8.686  1.00  0.00    -0.270 N 
ATOM   1472 HO2' 5BU B  18      -0.059  27.984  10.561  1.00  0.00     0.211 HD
ATOM   1473  P   5BU B  18       4.189  22.415   9.356  1.00  0.00     0.267 P 
ATOM   1474  C2  5BU B  18      -2.187  24.087   8.857  1.00  0.00     0.330 A 
ATOM   1475  C6  5BU B  18      -0.049  23.000   8.653  1.00  0.00     0.115 A 
ATOM   1476 OP1  5BU B  18       5.413  23.072   9.971  1.00  0.00    -0.276 OA
ATOM   1477 OP3  5BU B  18       3.575  21.176   9.978  1.00  0.00    -0.755 OA
ATOM   1478  O2  5BU B  18      -2.810  25.176   8.889  1.00  0.00    -0.248 OA
ATOM   1479  N3  5BU B  18      -2.834  22.915   8.984  1.00  0.00    -0.273 N 
ATOM   1480  C5  5BU B  18      -0.685  21.780   8.783  1.00  0.00     0.099 A 
ATOM   1481  H3  5BU B  18      -3.857  22.901   9.105  1.00  0.00     0.175 HD
ATOM   1482  C4  5BU B  18      -2.147  21.768   8.953  1.00  0.00     0.267 A 
ATOM   1483  BR  5BU B  18       0.256  20.132   8.770  1.00  0.00    -0.043 Br
ATOM   1484  O4  5BU B  18      -2.722  20.666   9.060  1.00  0.00    -0.268 OA
ATOM   1485 O3'  C   B  19      -1.461  27.696  15.899  1.00  0.00    -0.309 OA
ATOM   1486 C3'  C   B  19      -1.678  26.949  14.716  1.00  0.00     0.192 C 
ATOM   1487 C4'  C   B  19      -1.208  27.647  13.450  1.00  0.00     0.179 C 
ATOM   1488 C2'  C   B  19      -3.144  26.695  14.406  1.00  0.00     0.196 C 
ATOM   1489 C5'  C   B  19       0.275  27.631  13.176  1.00  0.00     0.204 C 
ATOM   1490 O4'  C   B  19      -1.918  26.948  12.392  1.00  0.00    -0.346 OA
ATOM   1491 C1'  C   B  19      -3.062  26.312  12.930  1.00  0.00     0.255 C 
ATOM   1492 O2'  C   B  19      -3.882  27.911  14.490  1.00  0.00    -0.386 OA
ATOM   1493 O5'  C   B  19       0.816  26.319  13.278  1.00  0.00    -0.316 OA
ATOM   1494  N1  C   B  19      -2.939  24.849  12.739  1.00  0.00    -0.270 N 
ATOM   1495 HO2' C   B  19      -4.024  28.146  15.441  1.00  0.00     0.211 HD
ATOM   1496  P   C   B  19       2.266  26.007  12.688  1.00  0.00     0.267 P 
ATOM   1497  C2  C   B  19      -4.116  24.114  12.759  1.00  0.00     0.351 A 
ATOM   1498  C6  C   B  19      -1.730  24.224  12.564  1.00  0.00     0.097 A 
ATOM   1499 OP1  C   B  19       3.260  26.918  13.323  1.00  0.00    -0.276 OA
ATOM   1500 OP2  C   B  19       2.456  24.531  12.730  1.00  0.00    -0.755 OA
ATOM   1501  O2  C   B  19      -5.183  24.723  12.943  1.00  0.00    -0.246 OA
ATOM   1502  N3  C   B  19      -4.077  22.770  12.581  1.00  0.00    -0.176 NA
ATOM   1503  C5  C   B  19      -1.672  22.894  12.386  1.00  0.00     0.065 A 
ATOM   1504  C4  C   B  19      -2.907  22.170  12.404  1.00  0.00     0.130 A 
ATOM   1505  N4  C   B  19      -2.936  20.848  12.243  1.00  0.00    -0.383 N 
ATOM   1506 H41  C   B  19      -2.059  20.327  12.101  1.00  0.00     0.158 HD
ATOM   1507 H42  C   B  19      -3.836  20.347  12.260  1.00  0.00     0.158 HD
ATOM   1508 O3'  DC  B  20      -5.628  25.852  20.154  1.00  0.00    -0.312 OA
ATOM   1509 C3'  DC  B  20      -5.134  25.225  18.983  1.00  0.00     0.163 C 
ATOM   1510 C4'  DC  B  20      -4.965  26.263  17.875  1.00  0.00     0.176 C 
ATOM   1511 C2'  DC  B  20      -6.209  24.317  18.390  1.00  0.00     0.091 C 
ATOM   1512 C5'  DC  B  20      -3.678  27.079  17.884  1.00  0.00     0.204 C 
ATOM   1513 O4'  DC  B  20      -5.092  25.481  16.655  1.00  0.00    -0.349 OA
ATOM   1514 C1'  DC  B  20      -5.798  24.272  16.919  1.00  0.00     0.226 C 
ATOM   1515 O5'  DC  B  20      -2.537  26.251  17.671  1.00  0.00    -0.316 OA
ATOM   1516  N1  DC  B  20      -4.943  23.073  16.548  1.00  0.00    -0.272 N 
ATOM   1517  P   DC  B  20      -1.153  26.925  17.281  1.00  0.00     0.267 P 
ATOM   1518  C6  DC  B  20      -3.601  23.199  16.317  1.00  0.00     0.097 A 
ATOM   1519  C2  DC  B  20      -5.545  21.819  16.421  1.00  0.00     0.351 A 
ATOM   1520 OP1  DC  B  20      -0.790  27.927  18.314  1.00  0.00    -0.276 OA
ATOM   1521 OP2  DC  B  20      -0.209  25.847  16.920  1.00  0.00    -0.756 OA
ATOM   1522  C5  DC  B  20      -2.842  22.140  15.977  1.00  0.00     0.065 A 
ATOM   1523  O2  DC  B  20      -6.756  21.727  16.629  1.00  0.00    -0.246 OA
ATOM   1524  N3  DC  B  20      -4.795  20.735  16.085  1.00  0.00    -0.176 NA
ATOM   1525  C4  DC  B  20      -3.482  20.866  15.864  1.00  0.00     0.130 A 
ATOM   1526  N4  DC  B  20      -2.780  19.766  15.533  1.00  0.00    -0.383 N 
ATOM   1527 H41  DC  B  20      -1.768  19.835  15.357  1.00  0.00     0.158 HD
ATOM   1528 H42  DC  B  20      -3.255  18.856  15.456  1.00  0.00     0.158 HD
