REMARK SMILES Cn1cc(/N=C/CCCc2ccccc2)c(=O)[nH]c1=O
REMARK SMILES IDX 1 1 2 2 19 3 3 4 18 5 4 6 16 7 20 8 17 10 5 11 6 12 7 13
REMARK SMILES IDX 8 14 9 15 10 16 11 17 15 18 12 19 14 20 13 21
REMARK H PARENT 18 9
ROOT
ATOM      1  C   UNL     1     -13.682  -3.095  -4.050  1.00  0.00     0.154 C 
ENDROOT
BRANCH   1   2
ATOM      2  N   UNL     1     -14.333  -1.896  -4.555  1.00  0.00    -0.301 N 
ATOM      3  C   UNL     1     -13.707  -0.666  -4.413  1.00  0.00     0.328 C 
ATOM      4  C   UNL     1     -15.552  -2.025  -5.191  1.00  0.00     0.124 C 
ATOM      5  N   UNL     1     -14.385   0.401  -4.936  1.00  0.00    -0.272 N 
ATOM      6  C   UNL     1     -16.240  -0.992  -5.696  1.00  0.00     0.144 C 
ATOM      7  C   UNL     1     -15.593   0.363  -5.576  1.00  0.00     0.279 C 
ATOM      8  O   UNL     1     -12.621  -0.495  -3.864  1.00  0.00    -0.248 OA
ATOM      9  H   UNL     1     -13.941   1.301  -4.851  1.00  0.00     0.175 HD
ATOM     10  O   UNL     1     -16.115   1.388  -6.009  1.00  0.00    -0.267 OA
BRANCH   6  11
ATOM     11  N   UNL     1     -17.431  -1.191  -6.357  1.00  0.00    -0.254 NA
BRANCH  11  12
ATOM     12  C   UNL     1     -18.406  -0.413  -6.016  1.00  0.00     0.084 C 
BRANCH  12  13
ATOM     13  C   UNL     1     -19.736  -0.516  -6.711  1.00  0.00     0.048 C 
BRANCH  13  14
ATOM     14  C   UNL     1     -19.970   0.741  -7.547  1.00  0.00     0.010 C 
BRANCH  14  15
ATOM     15  C   UNL     1     -21.266   0.684  -8.360  1.00  0.00     0.036 C 
BRANCH  15  16
ATOM     16  C   UNL     1     -22.512   0.683  -7.509  1.00  0.00    -0.048 A 
ATOM     17  C   UNL     1     -22.917   1.846  -6.840  1.00  0.00     0.004 A 
ATOM     18  C   UNL     1     -23.277  -0.483  -7.367  1.00  0.00     0.004 A 
ATOM     19  C   UNL     1     -24.063   1.843  -6.045  1.00  0.00     0.000 A 
ATOM     20  C   UNL     1     -24.423  -0.484  -6.571  1.00  0.00     0.000 A 
ATOM     21  C   UNL     1     -24.816   0.677  -5.909  1.00  0.00     0.000 A 
ENDBRANCH  15  16
ENDBRANCH  14  15
ENDBRANCH  13  14
ENDBRANCH  12  13
ENDBRANCH  11  12
ENDBRANCH   6  11
ENDBRANCH   1   2
